# vtk DataFile Version 4.1
vtk output
ASCII
DATASET STRUCTURED_GRID
DIMENSIONS 51 51 1
POINTS 2601 float
0 0 0 0.02 0 0 0.04 0 0 
0.06 0 0 0.08 0 0 0.1 0 0 
0.12 0 0 0.14 0 0 0.16 0 0 
0.18 0 0 0.2 0 0 0.22 0 0 
0.24 0 0 0.26 0 0 0.28 0 0 
0.3 0 0 0.32 0 0 0.34 0 0 
0.36 0 0 0.38 0 0 0.4 0 0 
0.42 0 0 0.44 0 0 0.46 0 0 
0.48 0 0 0.5 0 0 0.52 0 0 
0.54 0 0 0.56 0 0 0.58 0 0 
0.6 0 0 0.62 0 0 0.64 0 0 
0.66 0 0 0.68 0 0 0.7 0 0 
0.72 0 0 0.74 0 0 0.76 0 0 
0.78 0 0 0.8 0 0 0.82 0 0 
0.84 0 0 0.86 0 0 0.88 0 0 
0.9 0 0 0.92 0 0 0.94 0 0 
0.96 0 0 0.98 0 0 1 0 0 
0 0.02 0 0.02 0.02 0 0.04 0.02 0 
0.06 0.02 0 0.08 0.02 0 0.1 0.02 0 
0.12 0.02 0 0.14 0.02 0 0.16 0.02 0 
0.18 0.02 0 0.2 0.02 0 0.22 0.02 0 
0.24 0.02 0 0.26 0.02 0 0.28 0.02 0 
0.3 0.02 0 0.32 0.02 0 0.34 0.02 0 
0.36 0.02 0 0.38 0.02 0 0.4 0.02 0 
0.42 0.02 0 0.44 0.02 0 0.46 0.02 0 
0.48 0.02 0 0.5 0.02 0 0.52 0.02 0 
0.54 0.02 0 0.56 0.02 0 0.58 0.02 0 
0.6 0.02 0 0.62 0.02 0 0.64 0.02 0 
0.66 0.02 0 0.68 0.02 0 0.7 0.02 0 
0.72 0.02 0 0.74 0.02 0 0.76 0.02 0 
0.78 0.02 0 0.8 0.02 0 0.82 0.02 0 
0.84 0.02 0 0.86 0.02 0 0.88 0.02 0 
0.9 0.02 0 0.92 0.02 0 0.94 0.02 0 
0.96 0.02 0 0.98 0.02 0 1 0.02 0 
0 0.04 0 0.02 0.04 0 0.04 0.04 0 
0.06 0.04 0 0.08 0.04 0 0.1 0.04 0 
0.12 0.04 0 0.14 0.04 0 0.16 0.04 0 
0.18 0.04 0 0.2 0.04 0 0.22 0.04 0 
0.24 0.04 0 0.26 0.04 0 0.28 0.04 0 
0.3 0.04 0 0.32 0.04 0 0.34 0.04 0 
0.36 0.04 0 0.38 0.04 0 0.4 0.04 0 
0.42 0.04 0 0.44 0.04 0 0.46 0.04 0 
0.48 0.04 0 0.5 0.04 0 0.52 0.04 0 
0.54 0.04 0 0.56 0.04 0 0.58 0.04 0 
0.6 0.04 0 0.62 0.04 0 0.64 0.04 0 
0.66 0.04 0 0.68 0.04 0 0.7 0.04 0 
0.72 0.04 0 0.74 0.04 0 0.76 0.04 0 
0.78 0.04 0 0.8 0.04 0 0.82 0.04 0 
0.84 0.04 0 0.86 0.04 0 0.88 0.04 0 
0.9 0.04 0 0.92 0.04 0 0.94 0.04 0 
0.96 0.04 0 0.98 0.04 0 1 0.04 0 
0 0.06 0 0.02 0.06 0 0.04 0.06 0 
0.06 0.06 0 0.08 0.06 0 0.1 0.06 0 
0.12 0.06 0 0.14 0.06 0 0.16 0.06 0 
0.18 0.06 0 0.2 0.06 0 0.22 0.06 0 
0.24 0.06 0 0.26 0.06 0 0.28 0.06 0 
0.3 0.06 0 0.32 0.06 0 0.34 0.06 0 
0.36 0.06 0 0.38 0.06 0 0.4 0.06 0 
0.42 0.06 0 0.44 0.06 0 0.46 0.06 0 
0.48 0.06 0 0.5 0.06 0 0.52 0.06 0 
0.54 0.06 0 0.56 0.06 0 0.58 0.06 0 
0.6 0.06 0 0.62 0.06 0 0.64 0.06 0 
0.66 0.06 0 0.68 0.06 0 0.7 0.06 0 
0.72 0.06 0 0.74 0.06 0 0.76 0.06 0 
0.78 0.06 0 0.8 0.06 0 0.82 0.06 0 
0.84 0.06 0 0.86 0.06 0 0.88 0.06 0 
0.9 0.06 0 0.92 0.06 0 0.94 0.06 0 
0.96 0.06 0 0.98 0.06 0 1 0.06 0 
0 0.08 0 0.02 0.08 0 0.04 0.08 0 
0.06 0.08 0 0.08 0.08 0 0.1 0.08 0 
0.12 0.08 0 0.14 0.08 0 0.16 0.08 0 
0.18 0.08 0 0.2 0.08 0 0.22 0.08 0 
0.24 0.08 0 0.26 0.08 0 0.28 0.08 0 
0.3 0.08 0 0.32 0.08 0 0.34 0.08 0 
0.36 0.08 0 0.38 0.08 0 0.4 0.08 0 
0.42 0.08 0 0.44 0.08 0 0.46 0.08 0 
0.48 0.08 0 0.5 0.08 0 0.52 0.08 0 
0.54 0.08 0 0.56 0.08 0 0.58 0.08 0 
0.6 0.08 0 0.62 0.08 0 0.64 0.08 0 
0.66 0.08 0 0.68 0.08 0 0.7 0.08 0 
0.72 0.08 0 0.74 0.08 0 0.76 0.08 0 
0.78 0.08 0 0.8 0.08 0 0.82 0.08 0 
0.84 0.08 0 0.86 0.08 0 0.88 0.08 0 
0.9 0.08 0 0.92 0.08 0 0.94 0.08 0 
0.96 0.08 0 0.98 0.08 0 1 0.08 0 
0 0.1 0 0.02 0.1 0 0.04 0.1 0 
0.06 0.1 0 0.08 0.1 0 0.1 0.1 0 
0.12 0.1 0 0.14 0.1 0 0.16 0.1 0 
0.18 0.1 0 0.2 0.1 0 0.22 0.1 0 
0.24 0.1 0 0.26 0.1 0 0.28 0.1 0 
0.3 0.1 0 0.32 0.1 0 0.34 0.1 0 
0.36 0.1 0 0.38 0.1 0 0.4 0.1 0 
0.42 0.1 0 0.44 0.1 0 0.46 0.1 0 
0.48 0.1 0 0.5 0.1 0 0.52 0.1 0 
0.54 0.1 0 0.56 0.1 0 0.58 0.1 0 
0.6 0.1 0 0.62 0.1 0 0.64 0.1 0 
0.66 0.1 0 0.68 0.1 0 0.7 0.1 0 
0.72 0.1 0 0.74 0.1 0 0.76 0.1 0 
0.78 0.1 0 0.8 0.1 0 0.82 0.1 0 
0.84 0.1 0 0.86 0.1 0 0.88 0.1 0 
0.9 0.1 0 0.92 0.1 0 0.94 0.1 0 
0.96 0.1 0 0.98 0.1 0 1 0.1 0 
0 0.12 0 0.02 0.12 0 0.04 0.12 0 
0.06 0.12 0 0.08 0.12 0 0.1 0.12 0 
0.12 0.12 0 0.14 0.12 0 0.16 0.12 0 
0.18 0.12 0 0.2 0.12 0 0.22 0.12 0 
0.24 0.12 0 0.26 0.12 0 0.28 0.12 0 
0.3 0.12 0 0.32 0.12 0 0.34 0.12 0 
0.36 0.12 0 0.38 0.12 0 0.4 0.12 0 
0.42 0.12 0 0.44 0.12 0 0.46 0.12 0 
0.48 0.12 0 0.5 0.12 0 0.52 0.12 0 
0.54 0.12 0 0.56 0.12 0 0.58 0.12 0 
0.6 0.12 0 0.62 0.12 0 0.64 0.12 0 
0.66 0.12 0 0.68 0.12 0 0.7 0.12 0 
0.72 0.12 0 0.74 0.12 0 0.76 0.12 0 
0.78 0.12 0 0.8 0.12 0 0.82 0.12 0 
0.84 0.12 0 0.86 0.12 0 0.88 0.12 0 
0.9 0.12 0 0.92 0.12 0 0.94 0.12 0 
0.96 0.12 0 0.98 0.12 0 1 0.12 0 
0 0.14 0 0.02 0.14 0 0.04 0.14 0 
0.06 0.14 0 0.08 0.14 0 0.1 0.14 0 
0.12 0.14 0 0.14 0.14 0 0.16 0.14 0 
0.18 0.14 0 0.2 0.14 0 0.22 0.14 0 
0.24 0.14 0 0.26 0.14 0 0.28 0.14 0 
0.3 0.14 0 0.32 0.14 0 0.34 0.14 0 
0.36 0.14 0 0.38 0.14 0 0.4 0.14 0 
0.42 0.14 0 0.44 0.14 0 0.46 0.14 0 
0.48 0.14 0 0.5 0.14 0 0.52 0.14 0 
0.54 0.14 0 0.56 0.14 0 0.58 0.14 0 
0.6 0.14 0 0.62 0.14 0 0.64 0.14 0 
0.66 0.14 0 0.68 0.14 0 0.7 0.14 0 
0.72 0.14 0 0.74 0.14 0 0.76 0.14 0 
0.78 0.14 0 0.8 0.14 0 0.82 0.14 0 
0.84 0.14 0 0.86 0.14 0 0.88 0.14 0 
0.9 0.14 0 0.92 0.14 0 0.94 0.14 0 
0.96 0.14 0 0.98 0.14 0 1 0.14 0 
0 0.16 0 0.02 0.16 0 0.04 0.16 0 
0.06 0.16 0 0.08 0.16 0 0.1 0.16 0 
0.12 0.16 0 0.14 0.16 0 0.16 0.16 0 
0.18 0.16 0 0.2 0.16 0 0.22 0.16 0 
0.24 0.16 0 0.26 0.16 0 0.28 0.16 0 
0.3 0.16 0 0.32 0.16 0 0.34 0.16 0 
0.36 0.16 0 0.38 0.16 0 0.4 0.16 0 
0.42 0.16 0 0.44 0.16 0 0.46 0.16 0 
0.48 0.16 0 0.5 0.16 0 0.52 0.16 0 
0.54 0.16 0 0.56 0.16 0 0.58 0.16 0 
0.6 0.16 0 0.62 0.16 0 0.64 0.16 0 
0.66 0.16 0 0.68 0.16 0 0.7 0.16 0 
0.72 0.16 0 0.74 0.16 0 0.76 0.16 0 
0.78 0.16 0 0.8 0.16 0 0.82 0.16 0 
0.84 0.16 0 0.86 0.16 0 0.88 0.16 0 
0.9 0.16 0 0.92 0.16 0 0.94 0.16 0 
0.96 0.16 0 0.98 0.16 0 1 0.16 0 
0 0.18 0 0.02 0.18 0 0.04 0.18 0 
0.06 0.18 0 0.08 0.18 0 0.1 0.18 0 
0.12 0.18 0 0.14 0.18 0 0.16 0.18 0 
0.18 0.18 0 0.2 0.18 0 0.22 0.18 0 
0.24 0.18 0 0.26 0.18 0 0.28 0.18 0 
0.3 0.18 0 0.32 0.18 0 0.34 0.18 0 
0.36 0.18 0 0.38 0.18 0 0.4 0.18 0 
0.42 0.18 0 0.44 0.18 0 0.46 0.18 0 
0.48 0.18 0 0.5 0.18 0 0.52 0.18 0 
0.54 0.18 0 0.56 0.18 0 0.58 0.18 0 
0.6 0.18 0 0.62 0.18 0 0.64 0.18 0 
0.66 0.18 0 0.68 0.18 0 0.7 0.18 0 
0.72 0.18 0 0.74 0.18 0 0.76 0.18 0 
0.78 0.18 0 0.8 0.18 0 0.82 0.18 0 
0.84 0.18 0 0.86 0.18 0 0.88 0.18 0 
0.9 0.18 0 0.92 0.18 0 0.94 0.18 0 
0.96 0.18 0 0.98 0.18 0 1 0.18 0 
0 0.2 0 0.02 0.2 0 0.04 0.2 0 
0.06 0.2 0 0.08 0.2 0 0.1 0.2 0 
0.12 0.2 0 0.14 0.2 0 0.16 0.2 0 
0.18 0.2 0 0.2 0.2 0 0.22 0.2 0 
0.24 0.2 0 0.26 0.2 0 0.28 0.2 0 
0.3 0.2 0 0.32 0.2 0 0.34 0.2 0 
0.36 0.2 0 0.38 0.2 0 0.4 0.2 0 
0.42 0.2 0 0.44 0.2 0 0.46 0.2 0 
0.48 0.2 0 0.5 0.2 0 0.52 0.2 0 
0.54 0.2 0 0.56 0.2 0 0.58 0.2 0 
0.6 0.2 0 0.62 0.2 0 0.64 0.2 0 
0.66 0.2 0 0.68 0.2 0 0.7 0.2 0 
0.72 0.2 0 0.74 0.2 0 0.76 0.2 0 
0.78 0.2 0 0.8 0.2 0 0.82 0.2 0 
0.84 0.2 0 0.86 0.2 0 0.88 0.2 0 
0.9 0.2 0 0.92 0.2 0 0.94 0.2 0 
0.96 0.2 0 0.98 0.2 0 1 0.2 0 
0 0.22 0 0.02 0.22 0 0.04 0.22 0 
0.06 0.22 0 0.08 0.22 0 0.1 0.22 0 
0.12 0.22 0 0.14 0.22 0 0.16 0.22 0 
0.18 0.22 0 0.2 0.22 0 0.22 0.22 0 
0.24 0.22 0 0.26 0.22 0 0.28 0.22 0 
0.3 0.22 0 0.32 0.22 0 0.34 0.22 0 
0.36 0.22 0 0.38 0.22 0 0.4 0.22 0 
0.42 0.22 0 0.44 0.22 0 0.46 0.22 0 
0.48 0.22 0 0.5 0.22 0 0.52 0.22 0 
0.54 0.22 0 0.56 0.22 0 0.58 0.22 0 
0.6 0.22 0 0.62 0.22 0 0.64 0.22 0 
0.66 0.22 0 0.68 0.22 0 0.7 0.22 0 
0.72 0.22 0 0.74 0.22 0 0.76 0.22 0 
0.78 0.22 0 0.8 0.22 0 0.82 0.22 0 
0.84 0.22 0 0.86 0.22 0 0.88 0.22 0 
0.9 0.22 0 0.92 0.22 0 0.94 0.22 0 
0.96 0.22 0 0.98 0.22 0 1 0.22 0 
0 0.24 0 0.02 0.24 0 0.04 0.24 0 
0.06 0.24 0 0.08 0.24 0 0.1 0.24 0 
0.12 0.24 0 0.14 0.24 0 0.16 0.24 0 
0.18 0.24 0 0.2 0.24 0 0.22 0.24 0 
0.24 0.24 0 0.26 0.24 0 0.28 0.24 0 
0.3 0.24 0 0.32 0.24 0 0.34 0.24 0 
0.36 0.24 0 0.38 0.24 0 0.4 0.24 0 
0.42 0.24 0 0.44 0.24 0 0.46 0.24 0 
0.48 0.24 0 0.5 0.24 0 0.52 0.24 0 
0.54 0.24 0 0.56 0.24 0 0.58 0.24 0 
0.6 0.24 0 0.62 0.24 0 0.64 0.24 0 
0.66 0.24 0 0.68 0.24 0 0.7 0.24 0 
0.72 0.24 0 0.74 0.24 0 0.76 0.24 0 
0.78 0.24 0 0.8 0.24 0 0.82 0.24 0 
0.84 0.24 0 0.86 0.24 0 0.88 0.24 0 
0.9 0.24 0 0.92 0.24 0 0.94 0.24 0 
0.96 0.24 0 0.98 0.24 0 1 0.24 0 
0 0.26 0 0.02 0.26 0 0.04 0.26 0 
0.06 0.26 0 0.08 0.26 0 0.1 0.26 0 
0.12 0.26 0 0.14 0.26 0 0.16 0.26 0 
0.18 0.26 0 0.2 0.26 0 0.22 0.26 0 
0.24 0.26 0 0.26 0.26 0 0.28 0.26 0 
0.3 0.26 0 0.32 0.26 0 0.34 0.26 0 
0.36 0.26 0 0.38 0.26 0 0.4 0.26 0 
0.42 0.26 0 0.44 0.26 0 0.46 0.26 0 
0.48 0.26 0 0.5 0.26 0 0.52 0.26 0 
0.54 0.26 0 0.56 0.26 0 0.58 0.26 0 
0.6 0.26 0 0.62 0.26 0 0.64 0.26 0 
0.66 0.26 0 0.68 0.26 0 0.7 0.26 0 
0.72 0.26 0 0.74 0.26 0 0.76 0.26 0 
0.78 0.26 0 0.8 0.26 0 0.82 0.26 0 
0.84 0.26 0 0.86 0.26 0 0.88 0.26 0 
0.9 0.26 0 0.92 0.26 0 0.94 0.26 0 
0.96 0.26 0 0.98 0.26 0 1 0.26 0 
0 0.28 0 0.02 0.28 0 0.04 0.28 0 
0.06 0.28 0 0.08 0.28 0 0.1 0.28 0 
0.12 0.28 0 0.14 0.28 0 0.16 0.28 0 
0.18 0.28 0 0.2 0.28 0 0.22 0.28 0 
0.24 0.28 0 0.26 0.28 0 0.28 0.28 0 
0.3 0.28 0 0.32 0.28 0 0.34 0.28 0 
0.36 0.28 0 0.38 0.28 0 0.4 0.28 0 
0.42 0.28 0 0.44 0.28 0 0.46 0.28 0 
0.48 0.28 0 0.5 0.28 0 0.52 0.28 0 
0.54 0.28 0 0.56 0.28 0 0.58 0.28 0 
0.6 0.28 0 0.62 0.28 0 0.64 0.28 0 
0.66 0.28 0 0.68 0.28 0 0.7 0.28 0 
0.72 0.28 0 0.74 0.28 0 0.76 0.28 0 
0.78 0.28 0 0.8 0.28 0 0.82 0.28 0 
0.84 0.28 0 0.86 0.28 0 0.88 0.28 0 
0.9 0.28 0 0.92 0.28 0 0.94 0.28 0 
0.96 0.28 0 0.98 0.28 0 1 0.28 0 
0 0.3 0 0.02 0.3 0 0.04 0.3 0 
0.06 0.3 0 0.08 0.3 0 0.1 0.3 0 
0.12 0.3 0 0.14 0.3 0 0.16 0.3 0 
0.18 0.3 0 0.2 0.3 0 0.22 0.3 0 
0.24 0.3 0 0.26 0.3 0 0.28 0.3 0 
0.3 0.3 0 0.32 0.3 0 0.34 0.3 0 
0.36 0.3 0 0.38 0.3 0 0.4 0.3 0 
0.42 0.3 0 0.44 0.3 0 0.46 0.3 0 
0.48 0.3 0 0.5 0.3 0 0.52 0.3 0 
0.54 0.3 0 0.56 0.3 0 0.58 0.3 0 
0.6 0.3 0 0.62 0.3 0 0.64 0.3 0 
0.66 0.3 0 0.68 0.3 0 0.7 0.3 0 
0.72 0.3 0 0.74 0.3 0 0.76 0.3 0 
0.78 0.3 0 0.8 0.3 0 0.82 0.3 0 
0.84 0.3 0 0.86 0.3 0 0.88 0.3 0 
0.9 0.3 0 0.92 0.3 0 0.94 0.3 0 
0.96 0.3 0 0.98 0.3 0 1 0.3 0 
0 0.32 0 0.02 0.32 0 0.04 0.32 0 
0.06 0.32 0 0.08 0.32 0 0.1 0.32 0 
0.12 0.32 0 0.14 0.32 0 0.16 0.32 0 
0.18 0.32 0 0.2 0.32 0 0.22 0.32 0 
0.24 0.32 0 0.26 0.32 0 0.28 0.32 0 
0.3 0.32 0 0.32 0.32 0 0.34 0.32 0 
0.36 0.32 0 0.38 0.32 0 0.4 0.32 0 
0.42 0.32 0 0.44 0.32 0 0.46 0.32 0 
0.48 0.32 0 0.5 0.32 0 0.52 0.32 0 
0.54 0.32 0 0.56 0.32 0 0.58 0.32 0 
[...]
CELL_DATA 2500
FIELD FieldData 1
pressure 1 2500 double
0.0061868826415 0.0061171263799 0.0059232431457 0.0056463757648 0.0053277550837 0.0050003117632 0.004688179476 0.0044083477589 0.0041725336785 
0.0039887222713 0.0038623089415 0.0037968944538 0.0037948091332 0.0038574472141 0.0039854812561 0.0041790006676 0.0044375895103 0.0047603394548 
0.0051457896299 0.0055917941562 0.0060953327268 0.00665229223 0.0072572532571 0.007903311164 0.0085819481746 0.0092829546993 0.0099940239079 
0.010701926993 0.011392716046 0.012051847388 0.012664609435 0.013216648149 0.013694557667 0.014086503954 0.01438284659 0.014576721626 
0.014664548752 0.014646429828 0.014526413304 0.0143126105 0.01401716404 0.013656084323 0.013248983685 0.012818743927 0.012391149628 
0.011994388686 0.011658289133 0.01141239269 0.011280787568 0.011268380136 0.0062509465573 0.006182256894 0.0060192153512 0.0057918003433 
0.005528775752 0.005255137402 0.0049910847312 0.0047521428971 0.004549783757 0.0043921925896 0.0042850112887 0.0042319814189 0.004235466287 
0.0042968579128 0.0044168760578 0.0045957589967 0.0048333442379 0.0051290447615 0.0054817385311 0.0058895995196 0.0063499026139 0.0068588332418 
0.0074113260542 0.0080009481732 0.0086198368838 0.0092587046465 0.0099059563415 0.010549606783 0.011177084441 0.011775308532 0.012331100275 
0.012831665133 0.013265127752 0.01362109267 0.013891199029 0.014069635383 0.014153581183 0.014143544994 0.014043576311 0.013861337627 
0.013608034991 0.01329821668 0.012949457482 0.012581944949 0.012217965078 0.011881233008 0.011595873501 0.011384848095 0.011267322802 
0.011255962967 0.0064434094877 0.006346291398 0.0061820149848 0.0059715890132 0.005735934547 0.0054942719002 0.0052629192552 0.0050548103549 
0.0048796234629 0.0047442670323 0.0046534908948 0.0046104767351 0.0046173382875 0.0046755012485 0.0047859480026 0.0049493260615 0.0051659367835 
0.005435635963 0.0057576842606 0.0061305812808 0.0065519070249 0.0070181846707 0.007524771154 0.0080657797819 0.008634043105 0.0092211325853 
0.0098159635139 0.010407586853 0.01098448182 0.011534636606 0.012045945015 0.012506665454 0.012905925545 0.013234247591 0.013484064987 
0.013650197167 0.013730250704 0.013724917104 0.013638144252 0.01347716741 0.01325239617 0.01297716404 0.012667354463 0.01234091778 
0.012017284559 0.011716660155 0.011459158264 0.011263809107 0.011147666408 0.011126166026 0.0067284109169 0.0065779630815 0.0063875867363 
0.0061711760845 0.0059436253287 0.0057188987605 0.0055088621326 0.0053228506922 0.0051678151189 0.0050487627213 0.0049692666641 0.0049319224804 
0.0049387033286 0.0049911941494 0.0050907004008 0.0052382465326 0.0054344959504 0.0056796294831 0.0059732123055 0.0063140653523 0.0067001461103 
0.0071284387121 0.007594854177 0.0080941476755 0.0086198670993 0.0091643533595 0.0097169263725 0.010267427445 0.010805075883 0.011318572925 
0.011796487333 0.012227702166 0.012601905257 0.012910099253 0.0131451018 0.013302003262 0.013378548542 0.013375412237 0.013296342479 
0.013148157771 0.012940591999 0.012685994142 0.012398898412 0.012095486465 0.011792964479 0.011508877507 0.011260394042 0.011063651586 
0.010933374209 0.010883209127 0.0070643494124 0.0068461650109 0.0066147843002 0.0063784698738 0.0061464651321 0.0059273829006 0.0057284256923 
0.0055552350395 0.005412101215 0.0053022883901 0.0052283429289 0.0051923417765 0.0051960687754 0.00524110997 0.0053288686795 0.0054605172877 
0.0056369110453 0.0058584853288 0.0061251465469 0.0064361569445 0.0067900115266 0.0071843086621 0.0076156225191 0.008079392326 0.0085698471031 
0.0090799857094 0.0095994570473 0.010118637488 0.010627226476 0.011114341766 0.011568896324 0.011980039508 0.012337644982 0.012632820961 
0.012858412454 0.013009460991 0.013083585866 0.013081253377 0.013005906708 0.012863938569 0.012664501032 0.01241916029 0.012141416667 
0.011846120754 0.011548823815 0.011265106334 0.011009937282 0.010797133334 0.01063900466 0.010546207856 0.0074155916683 0.0071244923948 
0.0068450420138 0.0065804791871 0.0063347223432 0.0061114912037 0.0059139465112 0.0057446723971 0.0056057835671 0.0054990437564 0.0054259737801 
0.0053879524455 0.0053862979704 0.0054223090466 0.0054972573402 0.0056123383753 0.0057685920641 0.0059667996178 0.0062073577466 0.0064901306071 
0.0068142849925 0.0071781196652 0.0075789041898 0.0080127443733 0.0084744904197 0.0089577023818 0.0094523301168 0.0099490484528 0.010437836505 
0.01090798976 0.011348490242 0.011748448208 0.012097597732 0.012386820651 0.012608666502 0.012757830986 0.012831553587 0.012829897162 
0.012755878564 0.012615429762 0.012417182953 0.012172088919 0.011892893853 0.011593514009 0.011288357579 0.010991648439 0.010716805466 
0.010475919312 0.010279330373 0.010135191209 0.007754323454 0.0073903246115 0.0070595700314 0.0067609242877 0.0064939253215 0.0062584464949 
0.0060545305934 0.0058823149474 0.0057419831223 0.0056337495168 0.0055578963495 0.0055148492141 0.0055052497747 0.0055299899221 0.0055901949182 
0.0056871584419 0.0058222356268 0.0059966986479 0.0062115598069 0.006467371547 0.0067640172162 0.0071005077594 0.0074747987027 0.0078836396811 
0.0083224673141 0.0087853518278 0.0092625792464 0.0097449064559 0.010222439198 0.010684455401 0.011119771911 0.011517193025 0.011866022615 
0.012156612812 0.012380914591 0.012532989591 0.012609440036 0.01260971523 0.012536259314 0.01239447636 0.012192504546 0.011940809508 
0.011651626177 0.011338295362 0.011014552995 0.010693833576 0.010388641172 0.010110015987 0.0098670733425 0.0096665009133 0.0080578306136 
0.0076224446573 0.007238562228 0.0069017487245 0.0066083108085 0.0063551912553 0.0061398545163 0.005960163953 0.0058143040133 0.0057007868066 
0.0056185329403 0.0055669737152 0.0055461188555 0.0055565619143 0.0055994219452 0.0056762297758 0.0057887674778 0.0059388695455 0.0061281968978 
0.0063579982514 0.0066288733291 0.0069405496192 0.0072916813896 0.0076796783999 0.0081005732123 0.0085489380367 0.0090154886283 0.0094908542261 
0.0099651480622 0.010427469314 0.010866269458 0.01126981197 0.011626706785 0.011926491652 0.012160223854 0.012321038731 0.012404627861 
0.01240959034 0.012337616604 0.012193476218 0.011984798277 0.011721653951 0.011415973029 0.011080846033 0.010729776918 0.010375954465 
0.010031598924 0.0097074110677 0.0094121013077 0.0091519083222 0.0083055756479 0.0078004922423 0.0073629173382 0.0069860734013 0.0066637038036 
0.0063901571228 0.0061603855738 0.0059699207635 0.0058149074839 0.0056922063714 0.0055995190153 0.0055354755287 0.0054996503562 0.0054925049398 
0.0055152702156 0.0055697807931 0.005658269575 0.0057831320635 0.0059466721652 0.0061508421306 0.0063969864943 0.0066855967559 0.0070160824305 
0.0073865660489 0.0077937134947 0.0082326138078 0.0086945582471 0.0091698413159 0.0096484977359 0.010119322536 0.010570236629 0.010988757861 
0.011362559917 0.011680091466 0.011931217955 0.012107839912 0.012204436344 0.012218480942 0.012150684075 0.012005025778 0.011788563249 
0.011511019796 0.01118418751 0.010821198841 0.010435738319 0.010041269673 0.009650341666 0.0092740062399 0.0089213363339 0.0085989746039 
0.0084783560502 0.0079059344863 0.0074158217084 0.0069992192325 0.006647379295 0.0063520184732 0.0061055492512 0.0059012468797 0.0057334137925 
0.0055975310377 0.0054903563394 0.0054099424311 0.0053555789892 0.0053276769976 0.005327610234 0.0053575201409 0.0054200879538 0.0055182804355 
0.0056550782834 0.0058331959567 0.0060547993192 0.0063212266237 0.0066327201434 0.0069881795914 0.0073849520789 0.0078186746591 0.0082814198058 
0.0087629566246 0.0092531973784 0.0097405497153 0.010212276091 0.010654972266 0.011055149729 0.011399895817 0.011677573609 0.011878513303 
0.011995639221 0.012024973735 0.01196596334 0.011821583693 0.011598199501 0.011305180713 0.010954304924 0.010559002685 0.010133522093 
0.0096920957214 0.0092481825241 0.0088138288601 0.0083991488827 0.0080118742587 0.0085588211821 0.0079225814047 0.0073824893895 0.0069275619667 
0.0065464478752 0.0062282424165 0.0059629776348 0.0057419471985 0.0055579255165 0.0054052899954 0.0052800475676 0.0051797815185 0.0051035444167 
0.0050517154415 0.0050258261155 0.0050283520095 0.0050624703495 0.0051317882534 0.005240048995 0.0053908232292 0.0055871913334 0.005831424307 
0.0061246737279 0.0064666847857 0.0068555486793 0.0072875105485 0.007755705039 0.0082492228958 0.0087578598555 0.0092695992789 0.0097709554657 
0.010247452719 0.01068422806 0.011066733576 0.011381501255 0.011616920552 0.011763968631 0.011816827669 0.011773325162 0.011635143144 
0.011407761297 0.011100126058 0.010724069594 0.010293533927 0.0098236802245 0.0093299744363 0.0088273335758 0.0083293906851 0.0078478944877 
0.0073922118481 0.0085316610527 0.007835919379 0.0072489227438 0.0067573438051 0.0063472808529 0.0060054044244 0.0057196419922 0.0054795817587 
0.0052766839426 0.0051043512723 0.0049579011259 0.0048344774618 0.0047329275055 0.0046536492374 0.0045984042479 0.0045700913001 0.0045724819234 
0.0046099238511 0.004687019307 0.0048082844957 0.0049777970613 0.0051988404838 0.0054735571653 0.0058026246507 0.0061849716637 0.0066175532681 
0.00709494006 0.0076054380159 0.0081387870012 0.0086825587512 0.0092224703939 0.0097428552267 0.010227279725 0.010659286429 0.011023228145 
0.011305143714 0.011493611846 0.011580510265 0.011561605197 0.011436903303 0.01121071592 0.010891413448 0.010490882758 0.01002373746 
0.0095063623793 0.0089558916948 0.0083892192544 0.0078221173102 0.0072685001385 0.0067398221181 0.0083829826264 0.0076321898389 0.0070013403582 
0.0064748400973 0.0060364315942 0.0056705806308 0.0053632988664 0.0051025940326 0.0048786749776 0.0046839997097 0.0045132298503 0.0043631315412 
0.0042324391966 0.0041216817643 0.0040329674913 0.0039697278849 0.0039364259021 0.0039382344844 0.0039806906323 0.0040693296402 0.0042093054317 
0.0044050053049 0.0046596697017 0.0049750301304 0.0053509814027 0.0057853083375 0.0062745619906 0.0068061400035 0.0073698695028 0.0079529806307 
0.0085403921824 0.0091151653303 0.009659124761 0.010153635645 0.010580507706 0.010922978879 0.011166713003 0.011300731744 0.011318193402 
0.011216933596 0.010999697556 0.010674021333 0.010251757255 0.0097482823832 0.0091814691759 0.0085705258349 0.0079348221517 0.007292801224 
0.0066610411884 0.0060534846458 0.0080996443 0.0072982021083 0.0066266555879 0.006067313509 0.0056016989436 0.0052121639802 0.004882850286 
0.0046002051125 0.0043532103059 0.0041334340072 0.0039349764073 0.003754349187 0.0035903053117 0.0034436248842 0.0033168620206 0.0032140592383 
0.0031404346995 0.0031020451016 0.0031054253143 0.0031572063456 0.0032637154743 0.0034305647815 0.0036622366234 0.0039616776333 0.0043299171332 
0.0047657309598 0.0052681376225 0.0058237371885 0.0064226359577 0.0070518450762 0.007695540278 0.0083354812522 0.0089516183294 0.0095228900468 
0.010028191971 0.010447474089 0.01076290116 0.010959989927 0.011028622388 0.010963829683 0.010766250458 0.010442192728 0.01000326849 
0.0094656208538 0.0088488154736 0.0081745105643 0.0074650421473 0.0067420566816 0.0060252929013 0.0053315683623 0.0076692358493 0.0068218082897 
0.0061131512643 0.0055235402507 0.0050322892259 0.0046196366124 0.0042678668381 0.0039619114063 0.0036896105519 0.0034417620411 0.0032120387686 
0.0029968236647 0.0027949894446 0.0026076402614 0.0024378273264 0.0022902452355 0.0021709099167 0.002086815481 0.0020455667307 0.0020549861018 
0.0021226966251 0.0022556848021 0.0024598497774 0.0027395486324 0.0030971532326 0.0035326483331 0.0040477168882 0.0046288085593 0.0052664856848 
0.0059477093061 0.0066560378692 0.0073719706866 0.0080735088839 0.0087369514649 0.0093379165937 0.0098525527277 0.01025887678 0.010538148834 
0.010676169069 0.010664368099 0.010500562512 0.01018926716 0.0097414963001 0.0091740434705 0.0085082963234 0.0077687044219 0.0069810607797 
0.0061707704014 0.0053612583116 0.0045726235249 0.0070805378395 0.0061923335625 0.0054506195705 0.0048336036812 0.0043183846484 0.0038831266017 
0.0035083407987 0.0031775608484 0.0028776186673 0.0025986687442 0.0023340595629 0.0020801159673 0.0018358726683 0.0016027835439 0.0013844195484 
0.0011861576435 0.0010148561658 0.00087850965461 0.0007858772342 0.00074608135899 0.00076817626393 0.00086068753648 0.0010311267008 0.0012854869915 
0.0016277261552 0.0020592332892 0.0025843122682 0.0031906182743 0.0038691693069 0.0046071146556 0.0053876238691 0.0061900742116 0.0069905252673 
0.0077624843074 0.0084779594988 0.0091087764034 0.0096281023414 0.01001208754 0.010241496827 0.010303177939 0.010191200008 0.009907505808 
0.0094619587982 0.0088717301217 0.0081600537867 0.0073544653517 0.006484710997 0.0055805518585 0.0046696831426 0.0037759428035 0.0063238877999 
0.0054005987974 0.0046301110509 0.0039885786338 0.0034509757554 0.0029935249256 0.0025951120748 0.0022380118582 0.0019081603742 0.0015951461826 
0.0012920369233 0.00099511904093 0.00070359887122 0.000419291824 0.00014630993493 -0.00010925375704 -0.00033965149374 -0.00053582642281 -0.00068778494223 
-0.00078500112273 -0.00081685680906 -0.00077311883848 -0.00064445160957 -0.00042296008645 -0.00010275929543 0.00031940916183 0.00084850312948 0.0014779573929 
0.0021976079722 0.002995327985 0.0038542941878 0.0047530284909 0.0056657669724 0.0065631637273 0.0074133460448 0.0081833161896 0.0088406594013 
0.0093554728461 0.0097023815318 0.0098624623632 0.0098248665342 0.0095879245467 0.0091595469655 0.0085568015298 0.0078046484582 0.0069339346492 
0.0059788585844 0.0049741932346 0.0039525735743 0.0029421147905 0.0053912229508 0.0044387810944 0.0036438403662 0.0029806459517 0.002422230988 
0.0019430518318 0.0015205133582 0.0011357346835 0.00077381971522 0.00042382345393 7.8546221476e-05 -0.0002657570771 -0.00060969983835 -0.00095109130272 
-0.0012852595047 -0.0016053719446 -0.0019027617373 -0.0021672687426 -0.0023876052061 -0.0025517547792 -0.0026474125523 -0.0026624709985 -0.002585551994 
-0.0024065771215 -0.0021173506072 -0.001712074006 -0.0011874946905 -0.00053939045281 0.0002191366878 0.0010774708971 0.0020193288483 0.0030227747285 
0.0040604716757 0.0051002830338 0.0061062847634 0.0070402159187 0.0078633515022 0.0085387273142 0.0090335824043 0.0093218188569 0.0093862228735 
0.0092201610888 0.0088284778309 0.0082273838349 0.007443245393 0.0065103397802 0.0054678065121 0.0043561535494 0.0032137359068 0.0020735943139 
0.0042760295301 0.0033004694149 0.0024854430512 0.0018035158619 0.0012259832229 0.00072569409075 0.00027868383211 -0.00013501195663 -0.00053107784892 
-0.00092096620802 -0.0013121273725 -0.0017083268582 -0.0021099917228 -0.002514555808 -0.0029167928725 -0.0033091387356 -0.0036820102592 -0.0040241326547 
-0.0043228883387 -0.0045647008611 -0.0047354662216 -0.004821040899 -0.0048077915092 -0.0046832048176 -0.0044365473754 -0.0040595509765 -0.0035470997236 
-0.0028889528317 -0.0020969484872 -0.0011799774497 -0.00015326576711 0.00096130519627 0.0021352292148 0.0033338016982 0.0045170232527 0.0056410410053 
0.0066601456386 0.0075292799946 0.0082069356792 0.0086582239954 0.0088578201747 0.0087924155015 0.008462294616 0.0078817067665 0.007077830522 
0.0060883307297 0.0049577377832 0.0037330850673 0.0024593596907 0.0011753150409 0.0029734581504 0.0019809326667 0.0011503141951 0.00045272463297 
-0.00014209015723 -0.00066274410309 -0.0011344637672 -0.001578218162 -0.0020104242765 -0.0024430056606 -0.0028836461981 -0.0033361338077 -0.0038007295291 
-0.0042745273708 -0.0047517914049 -0.0052242705107 -0.0056815000463 -0.0061111052462 -0.0064991239256 -0.0068303666171 -0.0070888309021 -0.0072581839856 
-0.0073223244096 -0.0072660307753 -0.0070757053324 -0.0067402363699 -0.0062520861207 -0.0055946250777 -0.0047777046854 -0.0038073253431 -0.0026968831446 
-0.0014675149569 -0.00014830325622 0.0012239044264 0.0026052079616 0.0039460061979 0.0051930506601 0.0062921978256 0.0071917632033 0.0078462643564 
0.0082202145115 0.0082915177349 0.0080539541625 0.0075182652612 0.0067114806493 0.0056743698263 0.0044572164311 0.0031144231973 0.0016986680992 
0.00025537109784 0.001480577512 0.00047735676563 -0.00036426273307 -0.0010743687267 -0.0016845613599 -0.0022247466131 -0.0027212762696 -0.0031960230441 
-0.0036660726815 -0.0041437933993 -0.0046371109302 -0.0051498739794 -0.0056822389599 -0.0062310355036 -0.0067900975901 -0.0073505611212 -0.0079011394767 
-0.0084283951852 -0.0089170289987 -0.0093502082442 -0.0097099551203 -0.0099776135535 -0.010134410858 -0.010162127612 -0.010043886308 -0.0097650660272 
-0.0093143300378 -0.0086735980582 -0.0078442105708 -0.0068293782573 -0.0056399995366 -0.0042956406773 -0.0028251606695 -0.0012668856052 0.00033181031979 
0.0019156620406 0.0034235255297 0.004791297867 0.0059556965664 0.0068587079477 0.0074523455825 0.0077031901968 0.0075960545872 0.0071360844679 
0.0063487176458 0.0052772004019 0.0039777702244 0.0025130639362 0.00094466128982 -0.00067420433571 -0.00020343736619 -0.0012111103809 -0.002059193738 
-0.0027787060077 -0.0034023346539 -0.0039610618528 -0.0044822035073 -0.0049884349828 -0.0054974682363 -0.006022125091 -0.0065706232629 -0.0071469520161 
-0.0077512611418 -0.0083802218132 -0.0090273430243 -0.0096832449283 -0.010335902309 -0.010970878635 -0.011571574664 -0.012119516512 -0.012594707638 
-0.012976067956 -0.013241981434 -0.013370970151 -0.013342507432 -0.013137975091 -0.012741770222 -0.01213572128 -0.011309407523 -0.010262898553 
-0.0090034906149 -0.0075481035243 -0.0059243312516 -0.0041710422168 -0.0023383571679 -0.00048681023089 0.0013144901058 0.0029908302225 0.0044660161 
0.0056675164289 0.0065322728805 0.0070125859293 0.0070812682236 0.006735138278 0.0059959851787 0.0049084251125 0.0035345823925 0.001946155482 
0.00021498021836 -0.0015965344845 -0.0020772915409 -0.0030834483315 -0.0039336787837 -0.0046595748546 -0.0052945961132 -0.0058705599711 -0.0064155910493 
-0.0069530947833 -0.0075014073197 -0.0080738561936 -0.0086790409715 -0.0093212050696 -0.010000618011 -0.010713923502 -0.011454435198 -0.012212381001 
-0.012975109703 -0.013727281766 -0.014451070245 -0.015126399683 -0.01573125127 -0.016242062247 -0.016634246142 -0.016882856858 -0.016963411319 
-0.016852862299 -0.016530635241 -0.01597932946 -0.015175117066 -0.014113742569 -0.012797674347 -0.011239941014 -0.0094656123504 -0.0075128860184 
-0.0054335682254 -0.0032926944739 -0.0011670275415 0.00085779433338 0.0026915885507 0.0042453933549 0.005438365697 0.0062051909782 0.006503054834 
0.0063169808927 0.0056622937966 0.0045832300608 0.0031473232195 0.0014360329246 -0.00046708025111 -0.0024888388834 -0.0041376714253 -0.00513686596 
-0.0059852629578 -0.0067146020013 -0.0073587694872 -0.0079501799833 -0.0085176381097 -0.0090852457603 -0.0096720032859 -0.010291835988 -0.010953851396 
-0.011662693769 -0.012418910051 -0.013219278356 -0.014057077853 -0.014922299429 -0.015801810686 -0.016679497871 -0.017536412525 -0.018350953463 
-0.019099116045 -0.01975484129 -0.020290496994 -0.020677521748 -0.020887260792 -0.020892023332 -0.020666413546 -0.020189132467 -0.019429518635 
-0.018374115782 -0.017019337927 -0.015373002929 -0.013456234317 -0.011305091331 -0.0089716608785 -0.0065242934634 -0.0040466325073 -0.0016350960651 
0.00060545339132 0.0025679434319 0.0041510350097 0.0052681800382 0.0058567356378 0.0058856581623 0.0053600867526 0.0043212957548 0.0028411555963 
0.0010113269161 -0.0010713790439 -0.0033211879591 -0.0063793722654 -0.0073669043083 -0.0082099269817 -0.008939857146 -0.0095906490543 -0.010195087806 
-0.010782558193 -0.011377863931 -0.012000753724 -0.012665889207 -0.013383059105 -0.014157501408 -0.014990241964 -0.01587839526 -0.016815402454 
-0.017791203775 -0.018792357967 -0.019802131639 -0.020800587633 -0.021764705173 -0.022668566725 -0.023483647769 -0.02417924636 -0.024723089713 
-0.025082155866 -0.025223753391 -0.025116929453 -0.024734402419 -0.024045167274 -0.023020224337 -0.021649029917 -0.019932900854 -0.017887501171 
-0.015545075482 -0.012956259381 -0.010191092763 -0.007338797182 -0.0045058525153 -0.0018119468409 0.00061647895358 0.0026550718966 0.004192304016 