# vtk DataFile Version 4.1
vtk output
ASCII
DATASET STRUCTURED_GRID
DIMENSIONS 51 51 1
POINTS 2601 float
0 0 0 0.02 0 0 0.04 0 0 
0.06 0 0 0.08 0 0 0.1 0 0 
0.12 0 0 0.14 0 0 0.16 0 0 
0.18 0 0 0.2 0 0 0.22 0 0 
0.24 0 0 0.26 0 0 0.28 0 0 
0.3 0 0 0.32 0 0 0.34 0 0 
0.36 0 0 0.38 0 0 0.4 0 0 
0.42 0 0 0.44 0 0 0.46 0 0 
0.48 0 0 0.5 0 0 0.52 0 0 
0.54 0 0 0.56 0 0 0.58 0 0 
0.6 0 0 0.62 0 0 0.64 0 0 
0.66 0 0 0.68 0 0 0.7 0 0 
0.72 0 0 0.74 0 0 0.76 0 0 
0.78 0 0 0.8 0 0 0.82 0 0 
0.84 0 0 0.86 0 0 0.88 0 0 
0.9 0 0 0.92 0 0 0.94 0 0 
0.96 0 0 0.98 0 0 1 0 0 
0 0.02 0 0.02 0.02 0 0.04 0.02 0 
0.06 0.02 0 0.08 0.02 0 0.1 0.02 0 
0.12 0.02 0 0.14 0.02 0 0.16 0.02 0 
0.18 0.02 0 0.2 0.02 0 0.22 0.02 0 
0.24 0.02 0 0.26 0.02 0 0.28 0.02 0 
0.3 0.02 0 0.32 0.02 0 0.34 0.02 0 
0.36 0.02 0 0.38 0.02 0 0.4 0.02 0 
0.42 0.02 0 0.44 0.02 0 0.46 0.02 0 
0.48 0.02 0 0.5 0.02 0 0.52 0.02 0 
0.54 0.02 0 0.56 0.02 0 0.58 0.02 0 
0.6 0.02 0 0.62 0.02 0 0.64 0.02 0 
0.66 0.02 0 0.68 0.02 0 0.7 0.02 0 
0.72 0.02 0 0.74 0.02 0 0.76 0.02 0 
0.78 0.02 0 0.8 0.02 0 0.82 0.02 0 
0.84 0.02 0 0.86 0.02 0 0.88 0.02 0 
0.9 0.02 0 0.92 0.02 0 0.94 0.02 0 
0.96 0.02 0 0.98 0.02 0 1 0.02 0 
0 0.04 0 0.02 0.04 0 0.04 0.04 0 
0.06 0.04 0 0.08 0.04 0 0.1 0.04 0 
0.12 0.04 0 0.14 0.04 0 0.16 0.04 0 
0.18 0.04 0 0.2 0.04 0 0.22 0.04 0 
0.24 0.04 0 0.26 0.04 0 0.28 0.04 0 
0.3 0.04 0 0.32 0.04 0 0.34 0.04 0 
0.36 0.04 0 0.38 0.04 0 0.4 0.04 0 
0.42 0.04 0 0.44 0.04 0 0.46 0.04 0 
0.48 0.04 0 0.5 0.04 0 0.52 0.04 0 
0.54 0.04 0 0.56 0.04 0 0.58 0.04 0 
0.6 0.04 0 0.62 0.04 0 0.64 0.04 0 
0.66 0.04 0 0.68 0.04 0 0.7 0.04 0 
0.72 0.04 0 0.74 0.04 0 0.76 0.04 0 
0.78 0.04 0 0.8 0.04 0 0.82 0.04 0 
0.84 0.04 0 0.86 0.04 0 0.88 0.04 0 
0.9 0.04 0 0.92 0.04 0 0.94 0.04 0 
0.96 0.04 0 0.98 0.04 0 1 0.04 0 
0 0.06 0 0.02 0.06 0 0.04 0.06 0 
0.06 0.06 0 0.08 0.06 0 0.1 0.06 0 
0.12 0.06 0 0.14 0.06 0 0.16 0.06 0 
0.18 0.06 0 0.2 0.06 0 0.22 0.06 0 
0.24 0.06 0 0.26 0.06 0 0.28 0.06 0 
0.3 0.06 0 0.32 0.06 0 0.34 0.06 0 
0.36 0.06 0 0.38 0.06 0 0.4 0.06 0 
0.42 0.06 0 0.44 0.06 0 0.46 0.06 0 
0.48 0.06 0 0.5 0.06 0 0.52 0.06 0 
0.54 0.06 0 0.56 0.06 0 0.58 0.06 0 
0.6 0.06 0 0.62 0.06 0 0.64 0.06 0 
0.66 0.06 0 0.68 0.06 0 0.7 0.06 0 
0.72 0.06 0 0.74 0.06 0 0.76 0.06 0 
0.78 0.06 0 0.8 0.06 0 0.82 0.06 0 
0.84 0.06 0 0.86 0.06 0 0.88 0.06 0 
0.9 0.06 0 0.92 0.06 0 0.94 0.06 0 
0.96 0.06 0 0.98 0.06 0 1 0.06 0 
0 0.08 0 0.02 0.08 0 0.04 0.08 0 
0.06 0.08 0 0.08 0.08 0 0.1 0.08 0 
0.12 0.08 0 0.14 0.08 0 0.16 0.08 0 
0.18 0.08 0 0.2 0.08 0 0.22 0.08 0 
0.24 0.08 0 0.26 0.08 0 0.28 0.08 0 
0.3 0.08 0 0.32 0.08 0 0.34 0.08 0 
0.36 0.08 0 0.38 0.08 0 0.4 0.08 0 
0.42 0.08 0 0.44 0.08 0 0.46 0.08 0 
0.48 0.08 0 0.5 0.08 0 0.52 0.08 0 
0.54 0.08 0 0.56 0.08 0 0.58 0.08 0 
0.6 0.08 0 0.62 0.08 0 0.64 0.08 0 
0.66 0.08 0 0.68 0.08 0 0.7 0.08 0 
0.72 0.08 0 0.74 0.08 0 0.76 0.08 0 
0.78 0.08 0 0.8 0.08 0 0.82 0.08 0 
0.84 0.08 0 0.86 0.08 0 0.88 0.08 0 
0.9 0.08 0 0.92 0.08 0 0.94 0.08 0 
0.96 0.08 0 0.98 0.08 0 1 0.08 0 
0 0.1 0 0.02 0.1 0 0.04 0.1 0 
0.06 0.1 0 0.08 0.1 0 0.1 0.1 0 
0.12 0.1 0 0.14 0.1 0 0.16 0.1 0 
0.18 0.1 0 0.2 0.1 0 0.22 0.1 0 
0.24 0.1 0 0.26 0.1 0 0.28 0.1 0 
0.3 0.1 0 0.32 0.1 0 0.34 0.1 0 
0.36 0.1 0 0.38 0.1 0 0.4 0.1 0 
0.42 0.1 0 0.44 0.1 0 0.46 0.1 0 
0.48 0.1 0 0.5 0.1 0 0.52 0.1 0 
0.54 0.1 0 0.56 0.1 0 0.58 0.1 0 
0.6 0.1 0 0.62 0.1 0 0.64 0.1 0 
0.66 0.1 0 0.68 0.1 0 0.7 0.1 0 
0.72 0.1 0 0.74 0.1 0 0.76 0.1 0 
0.78 0.1 0 0.8 0.1 0 0.82 0.1 0 
0.84 0.1 0 0.86 0.1 0 0.88 0.1 0 
0.9 0.1 0 0.92 0.1 0 0.94 0.1 0 
0.96 0.1 0 0.98 0.1 0 1 0.1 0 
0 0.12 0 0.02 0.12 0 0.04 0.12 0 
0.06 0.12 0 0.08 0.12 0 0.1 0.12 0 
0.12 0.12 0 0.14 0.12 0 0.16 0.12 0 
0.18 0.12 0 0.2 0.12 0 0.22 0.12 0 
0.24 0.12 0 0.26 0.12 0 0.28 0.12 0 
0.3 0.12 0 0.32 0.12 0 0.34 0.12 0 
0.36 0.12 0 0.38 0.12 0 0.4 0.12 0 
0.42 0.12 0 0.44 0.12 0 0.46 0.12 0 
0.48 0.12 0 0.5 0.12 0 0.52 0.12 0 
0.54 0.12 0 0.56 0.12 0 0.58 0.12 0 
0.6 0.12 0 0.62 0.12 0 0.64 0.12 0 
0.66 0.12 0 0.68 0.12 0 0.7 0.12 0 
0.72 0.12 0 0.74 0.12 0 0.76 0.12 0 
0.78 0.12 0 0.8 0.12 0 0.82 0.12 0 
0.84 0.12 0 0.86 0.12 0 0.88 0.12 0 
0.9 0.12 0 0.92 0.12 0 0.94 0.12 0 
0.96 0.12 0 0.98 0.12 0 1 0.12 0 
0 0.14 0 0.02 0.14 0 0.04 0.14 0 
0.06 0.14 0 0.08 0.14 0 0.1 0.14 0 
0.12 0.14 0 0.14 0.14 0 0.16 0.14 0 
0.18 0.14 0 0.2 0.14 0 0.22 0.14 0 
0.24 0.14 0 0.26 0.14 0 0.28 0.14 0 
0.3 0.14 0 0.32 0.14 0 0.34 0.14 0 
0.36 0.14 0 0.38 0.14 0 0.4 0.14 0 
0.42 0.14 0 0.44 0.14 0 0.46 0.14 0 
0.48 0.14 0 0.5 0.14 0 0.52 0.14 0 
0.54 0.14 0 0.56 0.14 0 0.58 0.14 0 
0.6 0.14 0 0.62 0.14 0 0.64 0.14 0 
0.66 0.14 0 0.68 0.14 0 0.7 0.14 0 
0.72 0.14 0 0.74 0.14 0 0.76 0.14 0 
0.78 0.14 0 0.8 0.14 0 0.82 0.14 0 
0.84 0.14 0 0.86 0.14 0 0.88 0.14 0 
0.9 0.14 0 0.92 0.14 0 0.94 0.14 0 
0.96 0.14 0 0.98 0.14 0 1 0.14 0 
0 0.16 0 0.02 0.16 0 0.04 0.16 0 
0.06 0.16 0 0.08 0.16 0 0.1 0.16 0 
0.12 0.16 0 0.14 0.16 0 0.16 0.16 0 
0.18 0.16 0 0.2 0.16 0 0.22 0.16 0 
0.24 0.16 0 0.26 0.16 0 0.28 0.16 0 
0.3 0.16 0 0.32 0.16 0 0.34 0.16 0 
0.36 0.16 0 0.38 0.16 0 0.4 0.16 0 
0.42 0.16 0 0.44 0.16 0 0.46 0.16 0 
0.48 0.16 0 0.5 0.16 0 0.52 0.16 0 
0.54 0.16 0 0.56 0.16 0 0.58 0.16 0 
0.6 0.16 0 0.62 0.16 0 0.64 0.16 0 
0.66 0.16 0 0.68 0.16 0 0.7 0.16 0 
0.72 0.16 0 0.74 0.16 0 0.76 0.16 0 
0.78 0.16 0 0.8 0.16 0 0.82 0.16 0 
0.84 0.16 0 0.86 0.16 0 0.88 0.16 0 
0.9 0.16 0 0.92 0.16 0 0.94 0.16 0 
0.96 0.16 0 0.98 0.16 0 1 0.16 0 
0 0.18 0 0.02 0.18 0 0.04 0.18 0 
0.06 0.18 0 0.08 0.18 0 0.1 0.18 0 
0.12 0.18 0 0.14 0.18 0 0.16 0.18 0 
0.18 0.18 0 0.2 0.18 0 0.22 0.18 0 
0.24 0.18 0 0.26 0.18 0 0.28 0.18 0 
0.3 0.18 0 0.32 0.18 0 0.34 0.18 0 
0.36 0.18 0 0.38 0.18 0 0.4 0.18 0 
0.42 0.18 0 0.44 0.18 0 0.46 0.18 0 
0.48 0.18 0 0.5 0.18 0 0.52 0.18 0 
0.54 0.18 0 0.56 0.18 0 0.58 0.18 0 
0.6 0.18 0 0.62 0.18 0 0.64 0.18 0 
0.66 0.18 0 0.68 0.18 0 0.7 0.18 0 
0.72 0.18 0 0.74 0.18 0 0.76 0.18 0 
0.78 0.18 0 0.8 0.18 0 0.82 0.18 0 
0.84 0.18 0 0.86 0.18 0 0.88 0.18 0 
0.9 0.18 0 0.92 0.18 0 0.94 0.18 0 
0.96 0.18 0 0.98 0.18 0 1 0.18 0 
0 0.2 0 0.02 0.2 0 0.04 0.2 0 
0.06 0.2 0 0.08 0.2 0 0.1 0.2 0 
0.12 0.2 0 0.14 0.2 0 0.16 0.2 0 
0.18 0.2 0 0.2 0.2 0 0.22 0.2 0 
0.24 0.2 0 0.26 0.2 0 0.28 0.2 0 
0.3 0.2 0 0.32 0.2 0 0.34 0.2 0 
0.36 0.2 0 0.38 0.2 0 0.4 0.2 0 
0.42 0.2 0 0.44 0.2 0 0.46 0.2 0 
0.48 0.2 0 0.5 0.2 0 0.52 0.2 0 
0.54 0.2 0 0.56 0.2 0 0.58 0.2 0 
0.6 0.2 0 0.62 0.2 0 0.64 0.2 0 
0.66 0.2 0 0.68 0.2 0 0.7 0.2 0 
0.72 0.2 0 0.74 0.2 0 0.76 0.2 0 
0.78 0.2 0 0.8 0.2 0 0.82 0.2 0 
0.84 0.2 0 0.86 0.2 0 0.88 0.2 0 
0.9 0.2 0 0.92 0.2 0 0.94 0.2 0 
0.96 0.2 0 0.98 0.2 0 1 0.2 0 
0 0.22 0 0.02 0.22 0 0.04 0.22 0 
0.06 0.22 0 0.08 0.22 0 0.1 0.22 0 
0.12 0.22 0 0.14 0.22 0 0.16 0.22 0 
0.18 0.22 0 0.2 0.22 0 0.22 0.22 0 
0.24 0.22 0 0.26 0.22 0 0.28 0.22 0 
0.3 0.22 0 0.32 0.22 0 0.34 0.22 0 
0.36 0.22 0 0.38 0.22 0 0.4 0.22 0 
0.42 0.22 0 0.44 0.22 0 0.46 0.22 0 
0.48 0.22 0 0.5 0.22 0 0.52 0.22 0 
0.54 0.22 0 0.56 0.22 0 0.58 0.22 0 
0.6 0.22 0 0.62 0.22 0 0.64 0.22 0 
0.66 0.22 0 0.68 0.22 0 0.7 0.22 0 
0.72 0.22 0 0.74 0.22 0 0.76 0.22 0 
0.78 0.22 0 0.8 0.22 0 0.82 0.22 0 
0.84 0.22 0 0.86 0.22 0 0.88 0.22 0 
0.9 0.22 0 0.92 0.22 0 0.94 0.22 0 
0.96 0.22 0 0.98 0.22 0 1 0.22 0 
0 0.24 0 0.02 0.24 0 0.04 0.24 0 
0.06 0.24 0 0.08 0.24 0 0.1 0.24 0 
0.12 0.24 0 0.14 0.24 0 0.16 0.24 0 
0.18 0.24 0 0.2 0.24 0 0.22 0.24 0 
0.24 0.24 0 0.26 0.24 0 0.28 0.24 0 
0.3 0.24 0 0.32 0.24 0 0.34 0.24 0 
0.36 0.24 0 0.38 0.24 0 0.4 0.24 0 
0.42 0.24 0 0.44 0.24 0 0.46 0.24 0 
0.48 0.24 0 0.5 0.24 0 0.52 0.24 0 
0.54 0.24 0 0.56 0.24 0 0.58 0.24 0 
0.6 0.24 0 0.62 0.24 0 0.64 0.24 0 
0.66 0.24 0 0.68 0.24 0 0.7 0.24 0 
0.72 0.24 0 0.74 0.24 0 0.76 0.24 0 
0.78 0.24 0 0.8 0.24 0 0.82 0.24 0 
0.84 0.24 0 0.86 0.24 0 0.88 0.24 0 
0.9 0.24 0 0.92 0.24 0 0.94 0.24 0 
0.96 0.24 0 0.98 0.24 0 1 0.24 0 
0 0.26 0 0.02 0.26 0 0.04 0.26 0 
0.06 0.26 0 0.08 0.26 0 0.1 0.26 0 
0.12 0.26 0 0.14 0.26 0 0.16 0.26 0 
0.18 0.26 0 0.2 0.26 0 0.22 0.26 0 
0.24 0.26 0 0.26 0.26 0 0.28 0.26 0 
0.3 0.26 0 0.32 0.26 0 0.34 0.26 0 
0.36 0.26 0 0.38 0.26 0 0.4 0.26 0 
0.42 0.26 0 0.44 0.26 0 0.46 0.26 0 
0.48 0.26 0 0.5 0.26 0 0.52 0.26 0 
0.54 0.26 0 0.56 0.26 0 0.58 0.26 0 
0.6 0.26 0 0.62 0.26 0 0.64 0.26 0 
0.66 0.26 0 0.68 0.26 0 0.7 0.26 0 
0.72 0.26 0 0.74 0.26 0 0.76 0.26 0 
0.78 0.26 0 0.8 0.26 0 0.82 0.26 0 
0.84 0.26 0 0.86 0.26 0 0.88 0.26 0 
0.9 0.26 0 0.92 0.26 0 0.94 0.26 0 
0.96 0.26 0 0.98 0.26 0 1 0.26 0 
0 0.28 0 0.02 0.28 0 0.04 0.28 0 
0.06 0.28 0 0.08 0.28 0 0.1 0.28 0 
0.12 0.28 0 0.14 0.28 0 0.16 0.28 0 
0.18 0.28 0 0.2 0.28 0 0.22 0.28 0 
0.24 0.28 0 0.26 0.28 0 0.28 0.28 0 
0.3 0.28 0 0.32 0.28 0 0.34 0.28 0 
0.36 0.28 0 0.38 0.28 0 0.4 0.28 0 
0.42 0.28 0 0.44 0.28 0 0.46 0.28 0 
0.48 0.28 0 0.5 0.28 0 0.52 0.28 0 
0.54 0.28 0 0.56 0.28 0 0.58 0.28 0 
0.6 0.28 0 0.62 0.28 0 0.64 0.28 0 
0.66 0.28 0 0.68 0.28 0 0.7 0.28 0 
0.72 0.28 0 0.74 0.28 0 0.76 0.28 0 
0.78 0.28 0 0.8 0.28 0 0.82 0.28 0 
0.84 0.28 0 0.86 0.28 0 0.88 0.28 0 
0.9 0.28 0 0.92 0.28 0 0.94 0.28 0 
0.96 0.28 0 0.98 0.28 0 1 0.28 0 
0 0.3 0 0.02 0.3 0 0.04 0.3 0 
0.06 0.3 0 0.08 0.3 0 0.1 0.3 0 
0.12 0.3 0 0.14 0.3 0 0.16 0.3 0 
0.18 0.3 0 0.2 0.3 0 0.22 0.3 0 
0.24 0.3 0 0.26 0.3 0 0.28 0.3 0 
0.3 0.3 0 0.32 0.3 0 0.34 0.3 0 
0.36 0.3 0 0.38 0.3 0 0.4 0.3 0 
0.42 0.3 0 0.44 0.3 0 0.46 0.3 0 
0.48 0.3 0 0.5 0.3 0 0.52 0.3 0 
0.54 0.3 0 0.56 0.3 0 0.58 0.3 0 
0.6 0.3 0 0.62 0.3 0 0.64 0.3 0 
0.66 0.3 0 0.68 0.3 0 0.7 0.3 0 
0.72 0.3 0 0.74 0.3 0 0.76 0.3 0 
0.78 0.3 0 0.8 0.3 0 0.82 0.3 0 
0.84 0.3 0 0.86 0.3 0 0.88 0.3 0 
0.9 0.3 0 0.92 0.3 0 0.94 0.3 0 
0.96 0.3 0 0.98 0.3 0 1 0.3 0 
0 0.32 0 0.02 0.32 0 0.04 0.32 0 
0.06 0.32 0 0.08 0.32 0 0.1 0.32 0 
0.12 0.32 0 0.14 0.32 0 0.16 0.32 0 
0.18 0.32 0 0.2 0.32 0 0.22 0.32 0 
0.24 0.32 0 0.26 0.32 0 0.28 0.32 0 
0.3 0.32 0 0.32 0.32 0 0.34 0.32 0 
0.36 0.32 0 0.38 0.32 0 0.4 0.32 0 
0.42 0.32 0 0.44 0.32 0 0.46 0.32 0 
0.48 0.32 0 0.5 0.32 0 0.52 0.32 0 
0.54 0.32 0 0.56 0.32 0 0.58 0.32 0 
[...]
CELL_DATA 2500
FIELD FieldData 1
pressure 1 2500 double
0.0060986936133 0.0060298853768 0.0058351488428 0.0055569925407 0.005238353428 0.0049127929999 0.0046038878638 0.0043276049816 0.0040949764816 
0.0039139443356 0.0037902545489 0.0037277988429 0.0037288611444 0.0037944910979 0.0039249588441 0.004120124376 0.0043795976382 0.0047026791698 
0.0050881573443 0.0055340577635 0.0060374108853 0.006594062024 0.0071985203018 0.0078438356343 0.0085214976126 0.0092213535647 0.0099311905512 
0.0106378662 0.011327509586 0.011985640702 0.012597601952 0.013149090012 0.01362675153 0.014018807854 0.014315673297 0.014510530546 
0.014599827965 0.01458366775 0.014466062346 0.014255048491 0.013962660205 0.013604774702 0.01320085677 0.012773636065 0.01234874659 
0.011954233135 0.011619798077 0.011374892638 0.011243589911 0.011230944394 0.0061635851993 0.006092135275 0.0059260591801 0.0056978061823 
0.0054367516 0.0051669666912 0.0049072025701 0.0046719925176 0.0044726178088 0.0043175916874 0.0042129102025 0.0041623989434 0.0041682568814 
0.004231663728 0.0043532511883 0.0045333282328 0.0047718807083 0.0050684397334 0.0054219106629 0.0058304112338 0.0062911268499 0.0068001747008 
0.0073524728876 0.0079416236545 0.0085598306979 0.0091978798634 0.0098442577752 0.010487025227 0.011113652301 0.011711101494 0.012266247195 
0.012766360825 0.013199642064 0.013555770559 0.013826449292 0.014005908552 0.01409133924 0.014083226678 0.01398556317 0.013805925588 
0.013555414456 0.01324846038 0.012902515181 0.012537643571 0.012176012489 0.011841226845 0.011557320218 0.011347188781 0.011229977424 
0.011218381858 0.0063516146468 0.0062499744923 0.0060842452457 0.0058763430288 0.0056455582065 0.0054089418249 0.0051814499554 0.0049758577334 
0.0048024278808 0.0046686947405 0.0045796755088 0.0045384905734 0.0045471080415 0.0046069099886 0.0047189499009 0.0048839583544 0.0051022342078 
0.005373527428 0.0056969452554 0.0060708626124 0.0064928114144 0.006959345106 0.0074658972467 0.0080066638779 0.008574538235 0.0091611235924 
0.0097553756571 0.010346351409 0.010922561373 0.011472051266 0.011982797133 0.012443153507 0.012842342026 0.01317096129 0.013421492333 
0.013588768898 0.013670379206 0.013666968215 0.013582415909 0.013423875423 0.013201665723 0.012929024056 0.012621735489 0.012297652291 
0.011976110105 0.011677227064 0.011421042859 0.011226526757 0.011110689697 0.011088924944 0.0066291992183 0.0064769015962 0.0062894236915 
0.006078726763 0.0058567637531 0.0056357199001 0.0054273815823 0.0052420664345 0.0050877643279 0.0049699715115 0.0048922071446 0.0048568143116 
0.0048656089619 0.0049201723653 0.0050218469037 0.0051716137873 0.0053699903958 0.0056169781014 0.0059120182522 0.0062539085673 0.006640668727 
0.007069379269 0.0075360307669 0.0080354143448 0.0085610727237 0.0091053238624 0.00965751073 0.010207484819 0.010744529064 0.011257442168 
0.011734906015 0.01216591059 0.012540226349 0.012848904857 0.013084778587 0.013242924201 0.013321051598 0.013319785843 0.013242815896 
0.013096894673 0.012891684773 0.012639458574 0.012354670441 0.01205342075 0.011752835158 0.011470383257 0.011223164836 0.011027255363 
0.010897322951 0.010846949622 0.0069593834881 0.0067442220766 0.00651905987 0.0062886900722 0.0060602028788 0.0058421535483 0.0056430739779 
0.0054700496399 0.005328076994 0.0052203241544 0.0051488803236 0.00511545103 0.0051216936872 0.0051692136321 0.0052594170732 0.0053933927661 
0.0055718691735 0.0057951942452 0.0060632707023 0.0063754237595 0.0067302260902 0.0071253212461 0.007557277834 0.0080214909868 0.0085121377798 
0.0090221903225 0.0095413586015 0.010060074895 0.010568147697 0.011054816713 0.011509104968 0.011920242759 0.012278149877 0.012573950263 
0.01280048338 0.012952772251 0.013028409336 0.013027827534 0.01295442978 0.012814561493 0.012617318772 0.012374203939 0.012098646965 
0.011805424006 0.011510009798 0.011227911819 0.010974030736 0.01076212172 0.010604437191 0.010511574929 0.0073087655444 0.0070239440912 
0.0067507360996 0.0064897556733 0.0062448260852 0.0060211725316 0.0058236672894 0.0056557657912 0.0055194489634 0.0054158314143 0.0053458497043 
0.0053106365752 0.0053115370667 0.0053499497033 0.0054271854493 0.0055444127741 0.0057026394893 0.00590265289 0.006144885158 0.0064292261204 
0.0067548270041 0.007119926509 0.0075217120118 0.0079562186612 0.0084182676968 0.0089014472553 0.0093958334402 0.009892196838 0.010380636758 
0.010850549958 0.011290988395 0.011691101388 0.012040640459 0.012330494385 0.012553216302 0.012703503306 0.012778591314 0.012778531128 
0.012706316538 0.012567844365 0.012371698082 0.012128767772 0.011851728593 0.011554419797 0.011251170153 0.010956129739 0.010682650805 
0.010442768344 0.010246772726 0.010102774145 0.0076481539263 0.0072904755821 0.006963684077 0.0066661542941 0.0063989405716 0.006163718427 
0.0059614910787 0.0057922607895 0.005655463399 0.0055506038525 0.0054776497535 0.0054370786221 0.0054297296405 0.005456653471 0.0055190438336 
0.0056182109263 0.0057555159268 0.0059322277541 0.0061493224016 0.0064072694823 0.0067058364225 0.0070439179462 0.0074193881785 0.0078289740265 
0.0082681535122 0.0087310880105 0.0092082240893 0.0096904041788 0.010167814924 0.010629784188 0.011065156422 0.011462755079 0.011811906173 
0.012102991116 0.012327994057 0.012481006207 0.012558648799 0.012560374746 0.012488614583 0.01234874032 0.012148839337 0.011899310628 
0.011612310541 0.011301096911 0.010979324024 0.010660355031 0.010356633566 0.010079153801 0.009836991866 0.0096368074659 0.0079522052933 
0.0075212962519 0.0071392383322 0.0068027822128 0.0065099974465 0.0062588200204 0.0060466251679 0.0058705462254 0.005728054135 0.0056173526879 
0.0055374525354 0.0054880464125 0.0054693689594 0.0054821290863 0.0055274807442 0.0056069521626 0.0057222923745 0.0058752559711 0.0060673729179 
0.0062997340933 0.0065727963231 0.0068861973904 0.0072385747329 0.0076273901608 0.0080487726149 0.0084973998117 0.0089641192711 0.0094395878932 
0.0099139418274 0.0103762923 0.010815110274 0.011218696454 0.011575715779 0.011875770707 0.012109981596 0.012271534868 0.012356154673 
0.012362450269 0.012292098965 0.012149833043 0.011943222488 0.011682263103 0.011378800207 0.011045840114 0.010696809036 0.010344831095 
0.010002074207 0.0096792006852 0.0093848896584 0.0091253586116 0.0081990576273 0.0076968478615 0.0072604866006 0.0068848002888 0.0065645467341 
0.0062940835314 0.0060677430781 0.0058804355886 0.0057280672448 0.005607638157 0.0055171389357 0.0054554283794 0.0054221812689 0.005417872296 
0.0054437122989 0.0055014925145 0.005593358169 0.0057215628439 0.0058882371391 0.0060951744881 0.0063436190683 0.0066340423336 0.0069659059778 
0.0073374244663 0.007745353956 0.0081848402519 0.0086472355076 0.009122801135 0.0096015650625 0.010072339198 0.010523093641 0.010941423068 
0.011315093178 0.011632645427 0.011884026498 0.012061198099 0.012158675547 0.012173941277 0.01210768709 0.011963848456 0.011749417756 
0.011474041088 0.011149429143 0.01078863644 0.010405277864 0.010012758396 0.0096235786795 0.0092487529798 0.0088973246831 0.0085759151955 
0.0083698980438 0.0077999420997 0.0073116650636 0.006897403312 0.006548569121 0.0062564224629 0.0060128855156 0.0058110865572 0.005645519886 
0.0055119668474 0.0054073865184 0.005329881232 0.0052787052735 0.0052542250324 0.0052577763826 0.0052914378303 0.0053577745324 0.0054595930021 
0.0055997119149 0.0057807317625 0.0060047828651 0.0062732417211 0.0065864271434 0.0069433066101 0.0073412530549 0.0077758836032 0.0082392703854 
0.0087211291492 0.0092113821401 0.0096984922924 0.010169813688 0.010612053781 0.011011839275 0.011356363008 0.011634074446 0.011835365476 
0.011953194193 0.011983588236 0.011925972917 0.011783280351 0.011561816217 0.011270882874 0.010922187555 0.010529091603 0.010105778732 
0.0096664222398 0.0092244296506 0.0087918034829 0.0083786243647 0.0079925995338 0.0084483401133 0.0078150317548 0.0072777269573 0.0068259310387 
0.0064480180015 0.0061327073927 0.0058699479314 0.0056512616647 0.005469737622 0.0053199411461 0.0051978908178 0.0051010917574 0.0050285298519 
0.0049805578032 0.0049586820236 0.0049653060129 0.0050034769098 0.0050766464217 0.0051884301937 0.0053423400146 0.0055414706608 0.0057881465358 
0.0060835604504 0.0064274510947 0.0068178546753 0.0072509431282 0.0077198357428 0.0082135953995 0.0087220714331 0.0092333446244 0.0097340509466 
0.010209842642 0.010645977377 0.011028011708 0.011342560394 0.011578071619 0.011725556095 0.011779206019 0.011736837849 0.011600105569 
0.011374447563 0.011068758891 0.010694812462 0.010266485085 0.0097988709634 0.0093073688867 0.0088068348583 0.0083108484811 0.0078311180592 
0.0073769826931 0.0084197035959 0.0077276375646 0.0071442291341 0.0066561885994 0.0062493045474 0.0059101625366 0.0056269153913 0.0053894866491 
0.0051895541807 0.0050205484142 0.0048777068195 0.0047581029136 0.0046605693916 0.004585509801 0.0045346513058 0.0045107906327 0.0045175519547 
0.0045591438323 0.0046400872308 0.0047648887463 0.0049376565762 0.0051616901906 0.0054390948017 0.0057704584534 0.0061546040402 0.006588409916 
0.0070664613673 0.0075770786166 0.0081100951211 0.0086532041831 0.0091922527766 0.0097116990444 0.010195221589 0.01062645904 0.010989843389 
0.011271476257 0.011459982457 0.011547270042 0.011529119132 0.011405534125 0.011180806556 0.010863269379 0.010464754951 0.0099998086816 
0.0094847394482 0.0089366029552 0.0083722204428 0.0078073010873 0.00725571102 0.0067288731848 0.0082704075401 0.0075240691122 0.0068974535957 
0.0063747676483 0.0059395901308 0.0055765502843 0.0052720074908 0.0050142590717 0.0047936245082 0.004602539829 0.0044356250485 0.0042896473414 
0.0041633623775 0.0040572812853 0.0039734212157 0.0039150661639 0.0038865293362 0.0038928871869 0.0039396527813 0.0040323784499 0.0041762165902 
0.004375491227 0.0046333200649 0.0049512947505 0.0053292028635 0.0057647847811 0.0062546644861 0.0067862719115 0.0073495498999 0.0079318504221 
0.0085182096447 0.0090917965176 0.0096345340268 0.010127878977 0.01055372836 0.010895402767 0.011138640803 0.011272527155 0.011290265599 
0.011189715393 0.010973618989 0.010649482624 0.010229103506 0.0097277847469 0.0091633133775 0.008554809108 0.0079215586248 0.007281932623 
0.0066524523298 0.0060470228058 0.0079876405308 0.0071914187183 0.0065246107126 0.0059692568321 0.0055069191756 0.005120278714 0.0047938533871 
0.0045143314375 0.0042707837546 0.0040548020731 0.0038605150591 0.0036844637084 0.0035253824385 0.0033839530536 0.0032625698599 0.0031651125153 
0.0030966943777 0.0030633469919 0.0030716236453 0.0031281486871 0.0032391675922 0.0034101386413 0.003645368051 0.003947662696 0.0043179840414 
0.0047551159097 0.005258149487 0.0058137594337 0.0064121527115 0.0070404375113 0.0076828799818 0.0083213277327 0.0089358239284 0.0095054100103 
0.010009094277 0.010426943234 0.010741233019 0.010937577335 0.011005931611 0.010941370444 0.010744541703 0.010421729032 0.0099844902543 
0.0094488924342 0.0088344106759 0.0081626074673 0.0074557259141 0.0067353287813 0.00602108654 0.005329769425 0.0075593374584 0.0067177204208 
0.0060140203764 0.0054283509788 0.0049402922414 0.0045305243173 0.0041817111131 0.0038790092519 0.0036103734248 0.0033666744099 0.0031416302587 
0.0029316056807 0.0027353643267 0.0025538323667 0.0023898807552 0.0022480920479 0.0021344638465 0.0020560231584 0.0020203766986 0.0020352562286 
0.0021081035919 0.0022456914651 0.0024537417712 0.002736512501 0.0030963560971 0.0035332950985 0.0040490890921 0.0046302560376 0.0052674207908 
0.005947602984 0.0066544255554 0.0073684692424 0.008067841724 0.0087289734728 0.0093276308874 0.0098401145354 0.010244584701 0.010522424864 
0.010659529894 0.01064739046 0.010483846157 0.010173398616 0.0097270167381 0.009161422771 0.0084979132789 0.0077608355975 0.0069758782824 
0.0061683474598 0.0053615851502 0.0045756304499 0.0069743752079 0.0060921622664 0.0053552437348 0.0047419180773 0.0042297475063 0.0037973851072 
0.0034256940847 0.0030984179453 0.0028025190212 0.0025282314714 0.0022689073966 0.002020770256 0.0017826680487 0.0015558564784 0.0013437820888 
0.0011518079116 0.00098684441538 0.00085690700024 0.00077066595008 0.00073704148629 0.00076483771435 0.00086236355667 0.0010369976901 0.0012946893149 
0.0016394149914 0.0020726057543 0.0025985663518 0.0032050754221 0.0038831154375 0.0046198599988 0.0053985372598 0.0061986222643 0.0069963111365 
0.0077652761474 0.0084777039066 0.0091055971071 0.0096222876705 0.010004068847 0.010231820434 0.010292471857 0.010180138197 0.0098967705933 
0.0094522048316 0.0088635508946 0.0081539528453 0.0073508360061 0.0064838275664 0.0055825711582 0.0046746615469 0.0037838630476 0.0062228573495 
0.0053052817718 0.0045391809432 0.0039010687291 0.0033664684804 0.002912049088 0.0025169870294 0.002163745831 0.0018383927195 0.0015305720737 
0.0012332925505 0.0009426714252 0.0006577080907 0.00038007490809 0.00011386287279 -0.00013476942793 -0.00035803032929 -0.00054693979304 -0.00069171803447 
-0.00078212076547 -0.0008077848405 -0.00075864458127 -0.00062543536515 -0.00040026358196 -7.7210172413e-05 0.00034703867796 0.00087708515888 0.0015069403387 
0.0022260546286 0.0030223588377 0.0038791147277 0.0047749735235 0.0056843369488 0.0065780453968 0.0074244188978 0.0081906490818 0.0088445006712 
0.0093562345756 0.0097006179777 0.0098588417004 0.0098201366264 0.0095828721906 0.0091549544361 0.0085534026162 0.0078030881649 0.0069347387703 
0.0059824178098 0.0049807607794 0.0039622833338 0.0029550128721 0.0052963848103 0.0043491199768 0.00355815678 0.002898244819 0.0023429156159 
0.0018669739238 0.0014480626734 0.0010674888608 0.00071048709594 0.00036613140599 2.7105635323e-05 -0.00031053078582 -0.0006475533193 -0.0009818129506 
-0.0013085715622 -0.0016209316078 -0.001910282165 -0.0021666766082 -0.0023791319134 -0.0025359212507 -0.0026249402803 -0.0026341794026 -0.0025522854732 
-0.0023691777761 -0.0020766681101 -0.0016690014091 -0.0011430373442 -0.00049450095685 0.00026339000455 0.0011200580643 0.0020593261663 0.0030594087568 
0.0040931445572 0.0051285846709 0.0061299984326 0.0070593214444 0.0078780255392 0.0085493384887 0.0090406780449 0.0093261013178 0.0093885144735 
0.0092213581555 0.0088294980615 0.0082291115479 0.0074464792097 0.0065157521575 0.0054759196908 0.0043673326077 0.0032282067497 0.0020914797438 
0.004188264983 0.0032173379385 0.0024060076996 0.0017273292115 0.0011529785067 0.00065607888436 0.00021290317704 -0.00019630279318 -0.00058710538854 
-0.00097098943716 -0.0013555627214 -0.0017447623416 -0.0021390855176 -0.0025359122757 -0.0029299348466 -0.0033136164957 -0.0036775735745 -0.0040108481284 
-0.0043011414287 -0.0045351087731 -0.0046987690247 -0.004778023669 -0.0047592568682 -0.0046299899331 -0.0043795629048 -0.0039998158843 -0.0034857564554 
-0.0028270998459 -0.0020358335509 -0.0011207524286 -9.6956945098e-05 0.0010138209071 0.0021832387307 0.0033767682423 0.0045546012258 0.0056730925686 
0.0066867540065 0.0075507549852 0.0082238067225 0.0086712189985 0.0088678286825 0.0088004382642 0.0084693833444 0.0078889002176 0.0070860904894 
0.0060984908387 0.0049704691659 0.0037488825874 0.00247855796 0.0011981282888 0.0028936567501 0.001905308308 0.0010781740741 0.00038376962841 
-0.00020786417421 -0.00072506967859 -0.0011927974669 -0.0016317994667 -0.0020584239561 -0.0024846887449 -0.0029184409017 -0.003363564506 -0.0038202864807 
-0.0042856066194 -0.004753780293 -0.0052167267267 -0.0056642971719 -0.0060844594643 -0.0064635141065 -0.0067864198194 -0.0070372373016 -0.0071996671607 
-0.0072576630133 -0.007196105676 -0.0070015367575 -0.006662981076 -0.0061729739918 -0.0055150397615 -0.0046989380549 -0.003730603927 -0.0026233277915 
-0.0013981220719 -8.3927619997e-05 0.0012825735843 0.0026576765927 0.0039920051571 0.0052325587946 0.0063254540421 0.0072192637216 0.0078687442708 
0.0082386119016 0.0083069223432 0.0080675430915 0.0075312314984 0.0067249573371 0.0056893662054 0.0044745705306 0.0031347782051 0.0017224845816 
0.00028296998874 0.0014096670287 0.00041018967797 -0.00042821021273 -0.0011353048287 -0.0017424097255 -0.0022791161079 -0.0027714798701 -0.0032412044155 
-0.0037053891642 -0.0041765357821 -0.0046626807661 -0.005167658861 -0.0056915211987 -0.0062310447868 -0.0067801882757 -0.0073303870738 -0.0078707141924 
-0.0083880272379 -0.0088672037503 -0.0092914926484 -0.0096429622564 -0.0099030258322 -0.01005303609 -0.010074948436 -0.0099520673726 -0.0096699065968 
-0.0092171871184 -0.0085759100467 -0.0077473236166 -0.0067346043275 -0.0055485746294 -0.0042087036084 -0.0027437241033 -0.0011917978918 0.00039990597494 
0.0019763639338 0.0034767008308 0.004837098534 0.005994561955 0.0068913525361 0.0074797289859 0.0077264691833 0.0076165179212 0.0071550748856 
0.0063675440668 0.0052970589533 0.0039996815306 0.0025378368005 0.00097289913975 -0.00064205818362 -0.00026458961307 -0.001269021143 -0.0021142529012 
-0.0028310097814 -0.0034516595358 -0.0040068432965 -0.0045236233236 -0.0050246011367 -0.0055275726247 -0.006045469053 -0.0065865105884 -0.0071545718052 
-0.0077496999842 -0.0083686282538 -0.0090051298534 -0.0096501916442 -0.010292116664 -0.010916679408 -0.011507384037 -0.01204581344 -0.012512047987 
-0.012885146546 -0.013143695264 -0.01326643798 -0.01323302772 -0.01302493804 -0.012626557061 -0.012019950548 -0.011194312705 -0.010149925225 
-0.0088940130036 -0.0074434095905 -0.0058255840625 -0.004079234694 -0.0022542694201 -0.00041097363175 0.0013818218267 0.0030497018614 0.0045167823777 
0.0057108400289 0.0065691043932 0.0070441225227 0.0071088902267 0.0067603262534 0.0060202206394 0.0049330960075 0.0035609031799 0.0019751156134 
0.00024734203556 -0.0015601896723 -0.0021279700475 -0.0031314761147 -0.0039792932665 -0.0047027068483 -0.0053348307833 -0.0059071722592 -0.006447697967 
-0.0069798325643 -0.0075220038257 -0.0080875539215 -0.0086849637038 -0.0093183243039 -0.0099878898969 -0.010690510696 -0.011419857865 -0.012166517359 
-0.012918088722 -0.013659363586 -0.014372583015 -0.015037750142 -0.015632989372 -0.016134956149 -0.016519318825 -0.016761355431 -0.016836724199 
-0.01672243125 -0.016397906659 -0.015845771566 -0.01504217198 -0.013982937369 -0.012670505995 -0.011117823305 -0.0093498291019 -0.0074045483357 
-0.0053335770477 -0.0032017073011 -0.0010854271134 0.00092992822751 0.002754501546 0.0042996671362 0.0054849099418 0.0062452113246 0.006537994209 
0.0063484350379 0.0056919030563 0.0046125705294 0.0031778084705 0.0014688447231 -0.00043100615873 -0.0024487684659 -0.0041773326909 -0.005174525081 
-0.006020972999 -0.0067480964678 -0.0073894512695 -0.0079772232378 -0.0085401623479 -0.0091024289798 -0.0096830467782 -0.010295829416 -0.010949692827 
-0.011649181648 -0.012394967729 -0.013184153096 -0.014010393409 -0.01486397191 -0.015731921815 -0.0165982122 -0.017443972272 -0.018247739502 
-0.01898573267 -0.019632170714 -0.020159684621 -0.020539897891 -0.020744247235 -0.020745072187 -0.020517002433 -0.020038817541 -0.019279675933 
-0.018226448248 -0.016875449083 -0.015234394069 -0.013324272304 -0.011180976406 -0.0088563964178 -0.0064186543564 -0.0039511300939 -0.0015499420343 
0.00068037984051 0.0026331183215 0.0042072941112 0.005316699124 0.0058989810808 0.0059233064371 0.0053949117483 0.0043550481354 0.0028754458228 
0.001047535539 -0.0010321316629 -0.0032780026196 -0.006407635862 -0.0073938489158 -0.0082354043036 -0.0089634053717 -0.0096115317151 -0.01021243886 
-0.010795523192 -0.011385615496 -0.012002374639 -0.012660253401 -0.013368862713 -0.014133464247 -0.014955343183 -0.015831987008 -0.016757165269 
-0.017721023111 -0.018710222867 -0.019708108799 -0.020694872155 -0.021647710377 -0.022540996924 -0.023346503901 -0.024033758275 -0.024570618049 
-0.024924119532 -0.025061605944 -0.024952155026 -0.02456846974 -0.023879908384 -0.022857274696 -0.021490015193 -0.019779358287 -0.017740842233 
-0.015406559796 -0.012826968518 -0.01007189856 -0.0072303242572 -0.0044084377158 -0.0017255996876 0.00069210930032 0.0027207144968 0.004249062155 