# vtk DataFile Version 4.1
vtk output
ASCII
DATASET STRUCTURED_GRID
DIMENSIONS 51 51 1
POINTS 2601 float
0 0 0 0.02 0 0 0.04 0 0 
0.06 0 0 0.08 0 0 0.1 0 0 
0.12 0 0 0.14 0 0 0.16 0 0 
0.18 0 0 0.2 0 0 0.22 0 0 
0.24 0 0 0.26 0 0 0.28 0 0 
0.3 0 0 0.32 0 0 0.34 0 0 
0.36 0 0 0.38 0 0 0.4 0 0 
0.42 0 0 0.44 0 0 0.46 0 0 
0.48 0 0 0.5 0 0 0.52 0 0 
0.54 0 0 0.56 0 0 0.58 0 0 
0.6 0 0 0.62 0 0 0.64 0 0 
0.66 0 0 0.68 0 0 0.7 0 0 
0.72 0 0 0.74 0 0 0.76 0 0 
0.78 0 0 0.8 0 0 0.82 0 0 
0.84 0 0 0.86 0 0 0.88 0 0 
0.9 0 0 0.92 0 0 0.94 0 0 
0.96 0 0 0.98 0 0 1 0 0 
0 0.02 0 0.02 0.02 0 0.04 0.02 0 
0.06 0.02 0 0.08 0.02 0 0.1 0.02 0 
0.12 0.02 0 0.14 0.02 0 0.16 0.02 0 
0.18 0.02 0 0.2 0.02 0 0.22 0.02 0 
0.24 0.02 0 0.26 0.02 0 0.28 0.02 0 
0.3 0.02 0 0.32 0.02 0 0.34 0.02 0 
0.36 0.02 0 0.38 0.02 0 0.4 0.02 0 
0.42 0.02 0 0.44 0.02 0 0.46 0.02 0 
0.48 0.02 0 0.5 0.02 0 0.52 0.02 0 
0.54 0.02 0 0.56 0.02 0 0.58 0.02 0 
0.6 0.02 0 0.62 0.02 0 0.64 0.02 0 
0.66 0.02 0 0.68 0.02 0 0.7 0.02 0 
0.72 0.02 0 0.74 0.02 0 0.76 0.02 0 
0.78 0.02 0 0.8 0.02 0 0.82 0.02 0 
0.84 0.02 0 0.86 0.02 0 0.88 0.02 0 
0.9 0.02 0 0.92 0.02 0 0.94 0.02 0 
0.96 0.02 0 0.98 0.02 0 1 0.02 0 
0 0.04 0 0.02 0.04 0 0.04 0.04 0 
0.06 0.04 0 0.08 0.04 0 0.1 0.04 0 
0.12 0.04 0 0.14 0.04 0 0.16 0.04 0 
0.18 0.04 0 0.2 0.04 0 0.22 0.04 0 
0.24 0.04 0 0.26 0.04 0 0.28 0.04 0 
0.3 0.04 0 0.32 0.04 0 0.34 0.04 0 
0.36 0.04 0 0.38 0.04 0 0.4 0.04 0 
0.42 0.04 0 0.44 0.04 0 0.46 0.04 0 
0.48 0.04 0 0.5 0.04 0 0.52 0.04 0 
0.54 0.04 0 0.56 0.04 0 0.58 0.04 0 
0.6 0.04 0 0.62 0.04 0 0.64 0.04 0 
0.66 0.04 0 0.68 0.04 0 0.7 0.04 0 
0.72 0.04 0 0.74 0.04 0 0.76 0.04 0 
0.78 0.04 0 0.8 0.04 0 0.82 0.04 0 
0.84 0.04 0 0.86 0.04 0 0.88 0.04 0 
0.9 0.04 0 0.92 0.04 0 0.94 0.04 0 
0.96 0.04 0 0.98 0.04 0 1 0.04 0 
0 0.06 0 0.02 0.06 0 0.04 0.06 0 
0.06 0.06 0 0.08 0.06 0 0.1 0.06 0 
0.12 0.06 0 0.14 0.06 0 0.16 0.06 0 
0.18 0.06 0 0.2 0.06 0 0.22 0.06 0 
0.24 0.06 0 0.26 0.06 0 0.28 0.06 0 
0.3 0.06 0 0.32 0.06 0 0.34 0.06 0 
0.36 0.06 0 0.38 0.06 0 0.4 0.06 0 
0.42 0.06 0 0.44 0.06 0 0.46 0.06 0 
0.48 0.06 0 0.5 0.06 0 0.52 0.06 0 
0.54 0.06 0 0.56 0.06 0 0.58 0.06 0 
0.6 0.06 0 0.62 0.06 0 0.64 0.06 0 
0.66 0.06 0 0.68 0.06 0 0.7 0.06 0 
0.72 0.06 0 0.74 0.06 0 0.76 0.06 0 
0.78 0.06 0 0.8 0.06 0 0.82 0.06 0 
0.84 0.06 0 0.86 0.06 0 0.88 0.06 0 
0.9 0.06 0 0.92 0.06 0 0.94 0.06 0 
0.96 0.06 0 0.98 0.06 0 1 0.06 0 
0 0.08 0 0.02 0.08 0 0.04 0.08 0 
0.06 0.08 0 0.08 0.08 0 0.1 0.08 0 
0.12 0.08 0 0.14 0.08 0 0.16 0.08 0 
0.18 0.08 0 0.2 0.08 0 0.22 0.08 0 
0.24 0.08 0 0.26 0.08 0 0.28 0.08 0 
0.3 0.08 0 0.32 0.08 0 0.34 0.08 0 
0.36 0.08 0 0.38 0.08 0 0.4 0.08 0 
0.42 0.08 0 0.44 0.08 0 0.46 0.08 0 
0.48 0.08 0 0.5 0.08 0 0.52 0.08 0 
0.54 0.08 0 0.56 0.08 0 0.58 0.08 0 
0.6 0.08 0 0.62 0.08 0 0.64 0.08 0 
0.66 0.08 0 0.68 0.08 0 0.7 0.08 0 
0.72 0.08 0 0.74 0.08 0 0.76 0.08 0 
0.78 0.08 0 0.8 0.08 0 0.82 0.08 0 
0.84 0.08 0 0.86 0.08 0 0.88 0.08 0 
0.9 0.08 0 0.92 0.08 0 0.94 0.08 0 
0.96 0.08 0 0.98 0.08 0 1 0.08 0 
0 0.1 0 0.02 0.1 0 0.04 0.1 0 
0.06 0.1 0 0.08 0.1 0 0.1 0.1 0 
0.12 0.1 0 0.14 0.1 0 0.16 0.1 0 
0.18 0.1 0 0.2 0.1 0 0.22 0.1 0 
0.24 0.1 0 0.26 0.1 0 0.28 0.1 0 
0.3 0.1 0 0.32 0.1 0 0.34 0.1 0 
0.36 0.1 0 0.38 0.1 0 0.4 0.1 0 
0.42 0.1 0 0.44 0.1 0 0.46 0.1 0 
0.48 0.1 0 0.5 0.1 0 0.52 0.1 0 
0.54 0.1 0 0.56 0.1 0 0.58 0.1 0 
0.6 0.1 0 0.62 0.1 0 0.64 0.1 0 
0.66 0.1 0 0.68 0.1 0 0.7 0.1 0 
0.72 0.1 0 0.74 0.1 0 0.76 0.1 0 
0.78 0.1 0 0.8 0.1 0 0.82 0.1 0 
0.84 0.1 0 0.86 0.1 0 0.88 0.1 0 
0.9 0.1 0 0.92 0.1 0 0.94 0.1 0 
0.96 0.1 0 0.98 0.1 0 1 0.1 0 
0 0.12 0 0.02 0.12 0 0.04 0.12 0 
0.06 0.12 0 0.08 0.12 0 0.1 0.12 0 
0.12 0.12 0 0.14 0.12 0 0.16 0.12 0 
0.18 0.12 0 0.2 0.12 0 0.22 0.12 0 
0.24 0.12 0 0.26 0.12 0 0.28 0.12 0 
0.3 0.12 0 0.32 0.12 0 0.34 0.12 0 
0.36 0.12 0 0.38 0.12 0 0.4 0.12 0 
0.42 0.12 0 0.44 0.12 0 0.46 0.12 0 
0.48 0.12 0 0.5 0.12 0 0.52 0.12 0 
0.54 0.12 0 0.56 0.12 0 0.58 0.12 0 
0.6 0.12 0 0.62 0.12 0 0.64 0.12 0 
0.66 0.12 0 0.68 0.12 0 0.7 0.12 0 
0.72 0.12 0 0.74 0.12 0 0.76 0.12 0 
0.78 0.12 0 0.8 0.12 0 0.82 0.12 0 
0.84 0.12 0 0.86 0.12 0 0.88 0.12 0 
0.9 0.12 0 0.92 0.12 0 0.94 0.12 0 
0.96 0.12 0 0.98 0.12 0 1 0.12 0 
0 0.14 0 0.02 0.14 0 0.04 0.14 0 
0.06 0.14 0 0.08 0.14 0 0.1 0.14 0 
0.12 0.14 0 0.14 0.14 0 0.16 0.14 0 
0.18 0.14 0 0.2 0.14 0 0.22 0.14 0 
0.24 0.14 0 0.26 0.14 0 0.28 0.14 0 
0.3 0.14 0 0.32 0.14 0 0.34 0.14 0 
0.36 0.14 0 0.38 0.14 0 0.4 0.14 0 
0.42 0.14 0 0.44 0.14 0 0.46 0.14 0 
0.48 0.14 0 0.5 0.14 0 0.52 0.14 0 
0.54 0.14 0 0.56 0.14 0 0.58 0.14 0 
0.6 0.14 0 0.62 0.14 0 0.64 0.14 0 
0.66 0.14 0 0.68 0.14 0 0.7 0.14 0 
0.72 0.14 0 0.74 0.14 0 0.76 0.14 0 
0.78 0.14 0 0.8 0.14 0 0.82 0.14 0 
0.84 0.14 0 0.86 0.14 0 0.88 0.14 0 
0.9 0.14 0 0.92 0.14 0 0.94 0.14 0 
0.96 0.14 0 0.98 0.14 0 1 0.14 0 
0 0.16 0 0.02 0.16 0 0.04 0.16 0 
0.06 0.16 0 0.08 0.16 0 0.1 0.16 0 
0.12 0.16 0 0.14 0.16 0 0.16 0.16 0 
0.18 0.16 0 0.2 0.16 0 0.22 0.16 0 
0.24 0.16 0 0.26 0.16 0 0.28 0.16 0 
0.3 0.16 0 0.32 0.16 0 0.34 0.16 0 
0.36 0.16 0 0.38 0.16 0 0.4 0.16 0 
0.42 0.16 0 0.44 0.16 0 0.46 0.16 0 
0.48 0.16 0 0.5 0.16 0 0.52 0.16 0 
0.54 0.16 0 0.56 0.16 0 0.58 0.16 0 
0.6 0.16 0 0.62 0.16 0 0.64 0.16 0 
0.66 0.16 0 0.68 0.16 0 0.7 0.16 0 
0.72 0.16 0 0.74 0.16 0 0.76 0.16 0 
0.78 0.16 0 0.8 0.16 0 0.82 0.16 0 
0.84 0.16 0 0.86 0.16 0 0.88 0.16 0 
0.9 0.16 0 0.92 0.16 0 0.94 0.16 0 
0.96 0.16 0 0.98 0.16 0 1 0.16 0 
0 0.18 0 0.02 0.18 0 0.04 0.18 0 
0.06 0.18 0 0.08 0.18 0 0.1 0.18 0 
0.12 0.18 0 0.14 0.18 0 0.16 0.18 0 
0.18 0.18 0 0.2 0.18 0 0.22 0.18 0 
0.24 0.18 0 0.26 0.18 0 0.28 0.18 0 
0.3 0.18 0 0.32 0.18 0 0.34 0.18 0 
0.36 0.18 0 0.38 0.18 0 0.4 0.18 0 
0.42 0.18 0 0.44 0.18 0 0.46 0.18 0 
0.48 0.18 0 0.5 0.18 0 0.52 0.18 0 
0.54 0.18 0 0.56 0.18 0 0.58 0.18 0 
0.6 0.18 0 0.62 0.18 0 0.64 0.18 0 
0.66 0.18 0 0.68 0.18 0 0.7 0.18 0 
0.72 0.18 0 0.74 0.18 0 0.76 0.18 0 
0.78 0.18 0 0.8 0.18 0 0.82 0.18 0 
0.84 0.18 0 0.86 0.18 0 0.88 0.18 0 
0.9 0.18 0 0.92 0.18 0 0.94 0.18 0 
0.96 0.18 0 0.98 0.18 0 1 0.18 0 
0 0.2 0 0.02 0.2 0 0.04 0.2 0 
0.06 0.2 0 0.08 0.2 0 0.1 0.2 0 
0.12 0.2 0 0.14 0.2 0 0.16 0.2 0 
0.18 0.2 0 0.2 0.2 0 0.22 0.2 0 
0.24 0.2 0 0.26 0.2 0 0.28 0.2 0 
0.3 0.2 0 0.32 0.2 0 0.34 0.2 0 
0.36 0.2 0 0.38 0.2 0 0.4 0.2 0 
0.42 0.2 0 0.44 0.2 0 0.46 0.2 0 
0.48 0.2 0 0.5 0.2 0 0.52 0.2 0 
0.54 0.2 0 0.56 0.2 0 0.58 0.2 0 
0.6 0.2 0 0.62 0.2 0 0.64 0.2 0 
0.66 0.2 0 0.68 0.2 0 0.7 0.2 0 
0.72 0.2 0 0.74 0.2 0 0.76 0.2 0 
0.78 0.2 0 0.8 0.2 0 0.82 0.2 0 
0.84 0.2 0 0.86 0.2 0 0.88 0.2 0 
0.9 0.2 0 0.92 0.2 0 0.94 0.2 0 
0.96 0.2 0 0.98 0.2 0 1 0.2 0 
0 0.22 0 0.02 0.22 0 0.04 0.22 0 
0.06 0.22 0 0.08 0.22 0 0.1 0.22 0 
0.12 0.22 0 0.14 0.22 0 0.16 0.22 0 
0.18 0.22 0 0.2 0.22 0 0.22 0.22 0 
0.24 0.22 0 0.26 0.22 0 0.28 0.22 0 
0.3 0.22 0 0.32 0.22 0 0.34 0.22 0 
0.36 0.22 0 0.38 0.22 0 0.4 0.22 0 
0.42 0.22 0 0.44 0.22 0 0.46 0.22 0 
0.48 0.22 0 0.5 0.22 0 0.52 0.22 0 
0.54 0.22 0 0.56 0.22 0 0.58 0.22 0 
0.6 0.22 0 0.62 0.22 0 0.64 0.22 0 
0.66 0.22 0 0.68 0.22 0 0.7 0.22 0 
0.72 0.22 0 0.74 0.22 0 0.76 0.22 0 
0.78 0.22 0 0.8 0.22 0 0.82 0.22 0 
0.84 0.22 0 0.86 0.22 0 0.88 0.22 0 
0.9 0.22 0 0.92 0.22 0 0.94 0.22 0 
0.96 0.22 0 0.98 0.22 0 1 0.22 0 
0 0.24 0 0.02 0.24 0 0.04 0.24 0 
0.06 0.24 0 0.08 0.24 0 0.1 0.24 0 
0.12 0.24 0 0.14 0.24 0 0.16 0.24 0 
0.18 0.24 0 0.2 0.24 0 0.22 0.24 0 
0.24 0.24 0 0.26 0.24 0 0.28 0.24 0 
0.3 0.24 0 0.32 0.24 0 0.34 0.24 0 
0.36 0.24 0 0.38 0.24 0 0.4 0.24 0 
0.42 0.24 0 0.44 0.24 0 0.46 0.24 0 
0.48 0.24 0 0.5 0.24 0 0.52 0.24 0 
0.54 0.24 0 0.56 0.24 0 0.58 0.24 0 
0.6 0.24 0 0.62 0.24 0 0.64 0.24 0 
0.66 0.24 0 0.68 0.24 0 0.7 0.24 0 
0.72 0.24 0 0.74 0.24 0 0.76 0.24 0 
0.78 0.24 0 0.8 0.24 0 0.82 0.24 0 
0.84 0.24 0 0.86 0.24 0 0.88 0.24 0 
0.9 0.24 0 0.92 0.24 0 0.94 0.24 0 
0.96 0.24 0 0.98 0.24 0 1 0.24 0 
0 0.26 0 0.02 0.26 0 0.04 0.26 0 
0.06 0.26 0 0.08 0.26 0 0.1 0.26 0 
0.12 0.26 0 0.14 0.26 0 0.16 0.26 0 
0.18 0.26 0 0.2 0.26 0 0.22 0.26 0 
0.24 0.26 0 0.26 0.26 0 0.28 0.26 0 
0.3 0.26 0 0.32 0.26 0 0.34 0.26 0 
0.36 0.26 0 0.38 0.26 0 0.4 0.26 0 
0.42 0.26 0 0.44 0.26 0 0.46 0.26 0 
0.48 0.26 0 0.5 0.26 0 0.52 0.26 0 
0.54 0.26 0 0.56 0.26 0 0.58 0.26 0 
0.6 0.26 0 0.62 0.26 0 0.64 0.26 0 
0.66 0.26 0 0.68 0.26 0 0.7 0.26 0 
0.72 0.26 0 0.74 0.26 0 0.76 0.26 0 
0.78 0.26 0 0.8 0.26 0 0.82 0.26 0 
0.84 0.26 0 0.86 0.26 0 0.88 0.26 0 
0.9 0.26 0 0.92 0.26 0 0.94 0.26 0 
0.96 0.26 0 0.98 0.26 0 1 0.26 0 
0 0.28 0 0.02 0.28 0 0.04 0.28 0 
0.06 0.28 0 0.08 0.28 0 0.1 0.28 0 
0.12 0.28 0 0.14 0.28 0 0.16 0.28 0 
0.18 0.28 0 0.2 0.28 0 0.22 0.28 0 
0.24 0.28 0 0.26 0.28 0 0.28 0.28 0 
0.3 0.28 0 0.32 0.28 0 0.34 0.28 0 
0.36 0.28 0 0.38 0.28 0 0.4 0.28 0 
0.42 0.28 0 0.44 0.28 0 0.46 0.28 0 
0.48 0.28 0 0.5 0.28 0 0.52 0.28 0 
0.54 0.28 0 0.56 0.28 0 0.58 0.28 0 
0.6 0.28 0 0.62 0.28 0 0.64 0.28 0 
0.66 0.28 0 0.68 0.28 0 0.7 0.28 0 
0.72 0.28 0 0.74 0.28 0 0.76 0.28 0 
0.78 0.28 0 0.8 0.28 0 0.82 0.28 0 
0.84 0.28 0 0.86 0.28 0 0.88 0.28 0 
0.9 0.28 0 0.92 0.28 0 0.94 0.28 0 
0.96 0.28 0 0.98 0.28 0 1 0.28 0 
0 0.3 0 0.02 0.3 0 0.04 0.3 0 
0.06 0.3 0 0.08 0.3 0 0.1 0.3 0 
0.12 0.3 0 0.14 0.3 0 0.16 0.3 0 
0.18 0.3 0 0.2 0.3 0 0.22 0.3 0 
0.24 0.3 0 0.26 0.3 0 0.28 0.3 0 
0.3 0.3 0 0.32 0.3 0 0.34 0.3 0 
0.36 0.3 0 0.38 0.3 0 0.4 0.3 0 
0.42 0.3 0 0.44 0.3 0 0.46 0.3 0 
0.48 0.3 0 0.5 0.3 0 0.52 0.3 0 
0.54 0.3 0 0.56 0.3 0 0.58 0.3 0 
0.6 0.3 0 0.62 0.3 0 0.64 0.3 0 
0.66 0.3 0 0.68 0.3 0 0.7 0.3 0 
0.72 0.3 0 0.74 0.3 0 0.76 0.3 0 
0.78 0.3 0 0.8 0.3 0 0.82 0.3 0 
0.84 0.3 0 0.86 0.3 0 0.88 0.3 0 
0.9 0.3 0 0.92 0.3 0 0.94 0.3 0 
0.96 0.3 0 0.98 0.3 0 1 0.3 0 
0 0.32 0 0.02 0.32 0 0.04 0.32 0 
0.06 0.32 0 0.08 0.32 0 0.1 0.32 0 
0.12 0.32 0 0.14 0.32 0 0.16 0.32 0 
0.18 0.32 0 0.2 0.32 0 0.22 0.32 0 
0.24 0.32 0 0.26 0.32 0 0.28 0.32 0 
0.3 0.32 0 0.32 0.32 0 0.34 0.32 0 
0.36 0.32 0 0.38 0.32 0 0.4 0.32 0 
0.42 0.32 0 0.44 0.32 0 0.46 0.32 0 
0.48 0.32 0 0.5 0.32 0 0.52 0.32 0 
0.54 0.32 0 0.56 0.32 0 0.58 0.32 0 
[...]
CELL_DATA 2500
FIELD FieldData 1
pressure 1 2500 double
0.0010452991369 0.00098918145929 0.00084865048587 0.0006573012562 0.00044641661146 0.00024040808814 5.6992939159e-05 -9.1505015461e-05 -0.00019682765887 
-0.00025368449886 -0.00025890457934 -0.00021080346701 -0.00010872520001 4.7275254166e-05 0.00025663699338 0.00051840850401 0.00083129229614 0.001193635438 
0.0016033802544 0.0020579881412 0.0025543482182 0.0030886814876 0.003656450138 0.004252280129 0.004869902607 0.0055021151828 0.0061406355023 
0.0067764033522 0.0073999420529 0.0080013646916 0.0085706007022 0.0090976847972 0.0095730925349 0.0099881072309 0.010335201296 0.010608413182 
0.010803700292 0.010919248961 0.010955725535 0.010916457983 0.010807544832 0.010637896708 0.010419229906 0.010166038734 0.0098955728277 
0.0096278272114 0.0093854323221 0.0091930564127 0.0090748957807 0.0090464261347 0.0011022293783 0.0010456488758 0.00092754387178 0.00077197184922 
0.00060134258207 0.00043448574292 0.00028610548008 0.00016711406302 8.5278687245e-05 4.5900057e-05 5.2411425465e-05 0.0001068651461 0.00021030588982 
0.00036304123608 0.00056482390006 0.00081496001412 0.0011123575721 0.0014555276415 0.0018425504625 0.0022710174039 0.0027379590286 0.0032397689091 
0.0037721321374 0.0043299668969 0.004907387251 0.0054976973197 0.0060931061595 0.0066851878822 0.0072652631966 0.0078243070906 0.008353176116 
0.0088428786755 0.0092848819577 0.0096714439592 0.0099959556233 0.010253276147 0.010440043597 0.010554943685 0.010598922078 0.010575330024 
0.010489997449 0.010351235799 0.010169781992 0.0099586882134 0.0097331607454 0.0095103192948 0.0093087755803 0.009147810831 0.0090458073082 
0.0090181512405 0.0012442531941 0.0011634112856 0.0010437663663 0.00090146360003 0.00075208702256 0.00060944772711 0.00048492999797 0.00038741326364 
0.00032351524081 0.00029796150474 0.0003139688925 0.00037358767491 0.00047798032847 0.00062763203595 0.00082249626312 0.0010620829875 0.0013454982312 
0.0016714445116 0.0020381914905 0.0024435259148 0.0028846896666 0.0033583144229 0.0038603612254 0.0043860731551 0.0049299498164 0.0054857540743 
0.0060460829253 0.0066030181705 0.007148492843 0.007674126838 0.0081714470596 0.0086321447181 0.009048364432 0.009413014844 0.0097200868108 
0.0099649629556 0.010144701211 0.010258275401 0.01030675805 0.010293433922 0.010223835518 0.01010570277 0.0099488688275 0.0097650698696 
0.0095676788301 0.0093713417181 0.0091914724854 0.0090435563865 0.0089423131303 0.0089012507771 0.0014400255381 0.0013198370966 0.0011825203839 
0.00103764403 0.00089528886479 0.000764937172 0.00065478674117 0.00057149674491 0.00052021206118 0.00050473293292 0.00052773810831 0.00059100657477 
0.00069560919598 0.00084205775057 0.0010304085659 0.0012603230021 0.0015310899915 0.0018416171224 0.0021903973229 0.0025754584812 0.0029943033955 
0.0034438474832 0.0039203617175 0.0044194284414 0.0049359181361 0.0054639957661 0.0059965817347 0.0065261403611 0.0070450474637 0.0075453697627 
0.0080190761869 0.0084582863295 0.0088555499115 0.0092041468283 0.0094983939282 0.0097339420251 0.0099080452315 0.010019784738 0.010070231109 
0.010062531133 0.01000190915 0.0098955855181 0.0097526060767 0.0095835852548 0.0094003650199 0.0092155849656 0.0090421563536 0.0088926481914 
0.0087786523404 0.0087103066669 0.001659746912 0.0014931395 0.0013284339249 0.0011704009539 0.0010248409593 0.00089764402755 0.00079415662858 
0.00071887898096 0.00067538774884 0.00066639067086 0.00069384301946 0.00075907953546 0.00086293442181 0.0010058351904 0.0011878648994 0.001408792391 
0.0016680733009 0.0019648261489 0.0022977889503 0.0026652620684 0.0030650435143 0.0034943631436 0.0039498223627 0.0044273463908 0.004922156147 
0.0054287671195 0.0059403758069 0.0064496967168 0.0069494013556 0.0074318283764 0.0078891878588 0.0083138051559 0.0086983975021 0.0090363724223 
0.0093221335232 0.009551376199 0.0097213540204 0.009831096301 0.0098815590187 0.009875692063 0.0098184135451 0.0097164920642 0.0095783275477 
0.0094136412064 0.0092330805582 0.009047748305 0.0088686644179 0.0087061765063 0.0085693388015 0.0084652491724 0.0018792803377 0.0016640616537 
0.0014667824155 0.0012889520234 0.0011331560806 0.0010023903952 0.00089955360837 0.00082717383281 0.00078730334403 0.00078151780366 0.00081096911207 
0.0008764560811 0.00097849013332 0.001117343605 0.0012930748906 0.0015055292199 0.001754316452 0.0020387693154 0.0023578858005 0.0027102606684 
0.0030940111562 0.0035067024369 0.0039452789852 0.0044060076869 0.0048844399195 0.0053753988426 0.0058723233261 0.0063680396292 0.006855388898 
0.0073268294774 0.0077746366094 0.0081911455834 0.0085690311566 0.0089016117984 0.0091831634195 0.0094092237394 0.0095768661569 0.0096849214634 
0.0097341270081 0.0097271831161 0.0096687097525 0.0095650994208 0.0094242596892 0.0092552614818 0.0090679045026 0.0088722178399 0.0086779136626 
0.0084938080438 0.0083272069114 0.0081832058684 0.0020797091168 0.001816225502 0.0015840737197 0.0013825792722 0.0012119357935 0.0010728340927 
0.00096611461625 0.00089256501018 0.00085282978504 0.00084739243465 0.00087659538226 0.0009406718835 0.0010397731588 0.0011739811479 0.0013433023191 
0.0015476415417 0.0017867574582 0.0020602014107 0.0023672436481 0.0027067904344 0.0030772966425 0.0034766789551 0.0039022340294 0.0043505693416 
0.0048175515287 0.0052982790725 0.0057864178299 0.0062747615885 0.0067562145644 0.0072232235763 0.007667974826 0.0080826394348 0.0084596603729 
0.0087920689395 0.0090738143664 0.0093000860623 0.0094676050861 0.0095748606534 0.0096222679506 0.0096122243186 0.0095490587536 0.009438863889 
0.0092892109788 0.0091087661099 0.0089068259756 0.0086927982586 0.0084756515288 0.0082633514172 0.0080622802314 0.00787659939 0.0022460432207 
0.0019357991209 0.0016681811317 0.0014410056565 0.0012526521045 0.0011019603635 0.00098804556882 0.00091018259745 0.0008677521777 0.00086022784701 
0.00088718242301 0.00094829715051 0.0010433623977 0.0011722633891 0.001334948456 0.0015313797487 0.0017614673567 0.002024989617 0.0023215020517 
0.0026502386192 0.0030100092675 0.0033990968257 0.0038151611513 0.0042551531343 0.0047152468937 0.0051907961045 0.00567570813 0.0061625910704 
0.0066443249444 0.0071132334453 0.0075612784433 0.0079803100531 0.0083623648082 0.0086999998118 0.0089866454346 0.0092169543521 0.0093871209761 
0.0094951441638 0.00954100527 0.0095267365702 0.0094563748152 0.0093357824143 0.009172344915 0.0089745630199 0.0087515647421 0.0085125691281 
0.0082663333189 0.0080206056293 0.0077815888086 0.0075533901328 0.0023660496423 0.0020109677536 0.0017082298387 0.0014545336041 0.0012468215851 
0.0010824086847 0.00095894656181 0.00087439600426 0.0008270172258 0.00081537217314 0.00083832843117 0.00089505551562 0.00098500729046 0.0011078873553 
0.0012635968837 0.0014521651291 0.001673664989 0.0019281154498 0.0022153737444 0.0025350202565 0.002886238468 0.0032676966285 0.0036774327908 
0.0041127515231 0.0045701374108 0.0050451926329 0.005532125608 0.0060231915148 0.0065111800424 0.0069881993847 0.0074458687951 0.0078755744161 
0.0082687813498 0.0086173899866 0.0089141185084 0.009152887643 0.0093291790354 0.0094403367711 0.0094857789496 0.0094670928809 0.0093880049087 
0.0092542025361 0.0090730234635 0.0088530294632 0.0086034969628 0.0083338621832 0.0080531592971 0.0077694812818 0.0074894755686 0.0072178635278 
0.0024293774956 0.0020314286682 0.001694390237 0.0014140489643 0.0011861414654 0.0010066780424 0.00087204021091 0.00077903500454 0.00072492964267 
0.00070747257732 0.00072489956721 0.00077592229558 0.00085969750682 0.00097577676345 0.001124037109 0.0013045949335 0.0015177050238 0.0017636468703 
0.0020426008738 0.0023545163079 0.0026989753421 0.0030750559288 0.0034811983173 0.0039150814755 0.0043735164645 0.0048523646017 0.0053462457439 
0.0058468889269 0.0063469492714 0.0068382464384 0.0073119549418 0.0077588658242 0.0081697138638 0.0085355594491 0.0088482070211 0.0091006346741 
0.0092874034166 0.009405011788 0.0094521564988 0.0094298712772 0.0093415270313 0.0091926683438 0.0089907026569 0.0087444601913 0.0084636611465 
0.0081583344129 0.0078382331226 0.0075122840224 0.0071880903234 0.006871485855 0.0024269437822 0.0019879793349 0.0016176614414 0.0013109619599 
0.0010625422844 0.0008672483953 0.00072032670994 0.00061755246426 0.00055530546153 0.00053060902179 0.00054113939231 0.00058520849815 0.00066172260462 
0.00077011853893 0.00091028033624 0.0010824388927 0.0012870564634 0.0015246988412 0.0017958965131 0.0021009972505 0.0024400139211 0.0028124681929 
0.0032172374966 0.0036524092923 0.0041151520638 0.004601612829 0.0051070028739 0.0056223483538 0.0061401518613 0.0066518917008 0.0071482124133 
0.0076191906021 0.0080546762608 0.0084447020117 0.0087799429031 0.0090522001341 0.0092548742737 0.0093833892857 0.0094355207766 0.0094115984105 
0.0093145535368 0.0091497856231 0.0089248607106 0.0086490601195 0.0083328190046 0.0079871053574 0.0076227922853 0.0072500688461 0.0068779175972 
0.0065136650406 0.0023505134919 0.0018722058582 0.0014696818839 0.001137128205 0.0008681956743 0.00065664859948 0.00049668729904 0.00038314329736 
0.00031159133902 0.00027840397932 0.00028076301321 0.00031663670219 0.00038472816014 0.00048439984433 0.00061557809206 0.00077863987004 0.00097428550388 
0.0012033980084 0.0014668910457 0.0017655482885 0.002099854152 0.0024698201111 0.0028748098873 0.0033133704413 0.0037830752814 0.004280396612 
0.0048013810096 0.0053362188093 0.0058772607125 0.0064156091191 0.0069413128282 0.0074436293851 0.0079113753177 0.0083333620202 0.0086989010575 
0.0089983513058 0.0092236705395 0.0093689277551 0.0094307212931 0.0094084686274 0.00930452307 0.0091240889507 0.0088749405329 0.008566961886 
0.0082115490155 0.0078209310469 0.007407472395 0.0069830118177 0.0065582776917 0.0061423966769 0.0021924181442 0.0016762584678 0.0012425791913 
0.00088477296613 0.000595502709 0.00036749368928 0.00019395461828 6.8833170961e-05 -1.3039988595e-05 -5.5884264186e-05 -6.2957394083e-05 -3.6585354107e-05 
2.1775931711e-05 0.00011145418368 0.00023245333043 0.00038533025601 0.00057105651311 0.00079086730043 0.0010460989584 0.0013380155963 0.0016676250657 
0.002035488005 0.0024415223492 0.0028848061559 0.0033633881687 0.0038741116171 0.0044140883556 0.0049727670462 0.0055422925026 0.0061133717725 
0.0066754209431 0.0072167966055 0.0077251435439 0.0081878539615 0.0085926211321 0.0089280590182 0.0091843476991 0.0093538554624 0.0094316734546 
0.0094160218619 0.0093084637345 0.0091138929128 0.0088402886552 0.0084982504285 0.0081003543554 0.0076603944999 0.0071925822483 0.0067107742472 
0.0062277841472 0.005754810637 0.0019453728796 0.0013926973901 0.000928860157 0.0005464300086 0.00023707852928 -7.4921157018e-06 -0.00019503565174 
-0.00033245063474 -0.00042560832322 -0.00047927626499 -0.00049710893696 -0.00048168592507 -0.00043458398119 -0.00035647544328 -0.00024724524474 -0.00010612425225 
6.8164247286e-05 0.00027724577427 0.00052292320971 0.00080699307316 0.0011310493953 0.0014962771363 0.0019032350067 0.0023516358124 0.0028401181482 
0.003365993002 0.0039271789819 0.0045135307905 0.0051164194502 0.0057262033097 0.0063316862178 0.0069202791492 0.0074783359952 0.0079916324755 
0.0084459692632 0.0088278718297 0.0091253456193 0.0093286321557 0.0094308921093 0.009428763644 0.0093227096843 0.0091171103226 0.0088200751169 
0.0084429805375 0.0079997719736 0.0075060998224 0.0069783773988 0.0064328511014 0.0058847605523 0.0053476431837 0.0016023650945 0.0010143942177 
0.00052133733588 0.0001148994502 -0.00021425748842 -0.00047545586915 -0.00067740061203 -0.00082781614194 -0.00093324931744 -0.00099898644812 -0.0010290482385 
-0.0010262371179 -0.00099222180552 -0.00092764609098 -0.00083225624308 -0.00070504178377 -0.00054438787658 -0.00034824060264 -0.00011428361159 0.00015987056617 
0.00047647490778 0.00083742633971 0.0012440342004 0.0016967782535 0.0021950759401 0.0027370924479 0.0033197395629 0.0039371057472 0.0045776634855 
0.0052317789376 0.0058877620657 0.0065320842037 0.0071497189132 0.0077246373053 0.0082404581759 0.0086812332178 0.009032327355 0.0092813351977 
0.0094189495511 0.0094397155748 0.0093425586742 0.0091310244318 0.0088131811512 0.0084011751552 0.0079104725209 0.0073588626367 0.006765329194 
0.0061489061962 0.0055276282401 0.004917659865 0.0011565962936 0.00053447700357 1.3087223546e-05 -0.00041677446963 -0.00076548143741 -0.0010433927041 
-0.0012601655268 -0.0014243431103 -0.0015431352062 -0.001622330645 -0.0016662976302 -0.0016780429366 -0.0016593080942 -0.0016106896474 -0.0015317749087 
-0.0014212885458 -0.0012772498768 -0.0010971402494 -0.00087808185553 -0.00061703377095 -0.00031100402993 4.2718386112e-05 0.00044631232971 0.00090116009541 
0.0014075771966 0.0019645536026 0.0025695161344 0.0032193103088 0.0039007238932 0.0046041187148 0.0053174017043 0.0060261467813 0.0067138962531 
0.0073626504508 0.0079535531715 0.008467761232 0.0088874619662 0.0091969768053 0.0093838573261 0.0094398885071 0.0093618577177 0.0091520006009 
0.0088180414918 0.0083727942571 0.0078333447371 0.0072198941173 0.0065543903535 0.0058591009327 0.0051552794418 0.0044620528711 0.00060146455287 
-5.3690416004e-05 -0.00060256515876 -0.001055307117 -0.0014233525972 -0.0017181150347 -0.0019502135477 -0.0021290134994 -0.0022623864369 -0.0023566191434 
-0.0024164218951 -0.0024449993212 -0.0024441590047 -0.0024144422492 -0.0023552671507 -0.0022650799521 -0.0021415134576 -0.0019815523175 -0.0017817125728 
-0.0015382350784 -0.0012473021289 -0.00090527712035 -0.00050897180069 -5.5938092315e-05 0.00045521625252 0.0010245028149 0.0016502254798 0.0023326410084 
0.0030567901702 0.0038134015151 0.0045901915651 0.005371960088 0.0061408339762 0.0068767229693 0.0075580186191 0.0081625386467 0.0086686882711 
0.0090567763219 0.0093103846552 0.0094176833255 0.009372516783 0.0091751341111 0.0088324364871 0.0083576699329 0.0077695619166 0.0070909800263 
0.0063472637652 0.0055644286666 0.0047674536129 0.0039788361068 -6.942186855e-05 -0.00075650258995 -0.0013320406045 -0.0018071613952 -0.0021943896421 
-0.0025062128227 -0.0027542271618 -0.0029486318517 -0.003097969113 -0.0032090316991 -0.0032868792862 -0.0033349212538 -0.0033550378542 -0.0033477204987 
-0.0033122215503 -0.0032467070424 -0.0031484123392 -0.0030138040539 -0.0028387512246 -0.0026187152623 -0.00234896294 -0.0020248098683 -0.0016418989939 
-0.0011965216191 -0.0006859730962 -0.00010894997513 0.00053402124484 0.0012468679002 0.00201376063 0.0028260503232 0.0036715232497 0.0045344248531 
0.0053955797234 0.0062327647173 0.0070213867466 0.0077354811605 0.008349013965 0.0088374304177 0.0091793447093 0.0093582389017 0.0093639598713 
0.0091938368777 0.0088532335866 0.0083554069361 0.0077206319472 0.0069746596883 0.0061466833147 0.0052670682405 0.0043651351483 0.0034672605935 
-0.00086220742617 -0.0015800871005 -0.0021814846806 -0.0026785241349 -0.0030848375234 -0.0034140055318 -0.0036786202585 -0.0038897334062 -0.0040565772284 
-0.0041864705828 -0.0042848432446 -0.0043553311764 -0.0043999090792 -0.0044190403906 -0.00441183042 -0.0043761781319 -0.0043089265269 -0.0042060136149 
-0.0040626329135 -0.0038734113619 -0.0036326122881 -0.0033343754386 -0.0029730034182 -0.0025432977452 -0.0020409537368 -0.0014630292453 -0.00080852649325 
-7.0665715712e-05 0.0007366942441 0.0016051563686 0.0025229139835 0.0034740313013 0.0044382873188 0.0053914035595 0.0063056548632 0.0071508873892 
0.0078959454561 0.0085104623843 0.0089669131985 0.0092427751898 0.0093225464795 0.0091993829501 0.0088760891416 0.0083652555392 0.0076884376076 
0.0068744144993 0.0059567208812 0.0049707753487 0.003950995731 0.0029282764114 -0.0017827358128 -0.0025302668612 -0.0031567381314 -0.0036752754812 
-0.0041006287882 -0.0044474879053 -0.0047294621625 -0.0049584816054 -0.0051444983529 -0.0052953902465 -0.0054169931832 -0.005513207539 -0.0055861425771 
-0.0056362732872 -0.0056625954069 -0.0056627733133 -0.0056332800819 -0.0055695328623 -0.0054660367451 -0.0053165414277 -0.0051142280149 -0.0048519362378 
-0.0045224474959 -0.0041188271628 -0.0036348421225 -0.0030654345415 -0.00240723795 -0.001654819488 -0.00081126022284 0.00011139049264 0.0011027951665 
0.002147498221 0.0032246844249 0.0043082611221 0.0053673565039 0.0063673067899 0.0072711711716 0.0080417565206 0.0086440653126 0.0090479958879 
0.009231008417 0.0091804437922 0.008895132302 0.0083859733284 0.0076752820823 0.0067948816699 0.0057831378326 0.0046813336221 0.0035299058994 
0.0023650691997 -0.0028364878991 -0.0036125182757 -0.0042633045111 -0.0048029582972 -0.0052473446003 -0.0056122743422 -0.0059123976277 -0.0061605564724 
-0.006367464144 -0.0065416053448 -0.0066892746701 -0.0068146940283 -0.0069201668849 -0.0070062401447 -0.0070718591812 -0.0071145084017 -0.007130335018 
-0.0071142663688 -0.0070601263274 -0.0069607655482 -0.0068082188146 -0.0065939133915 -0.0063089360656 -0.0059443790574 -0.0054917680972 -0.0049435656019 
-0.0042936795762 -0.0035376880602 -0.0026666648608 -0.0016954156736 -0.00063211319655 0.00050899441018 0.0017071188547 0.0029347903655 0.0041581619001 
0.0053378863729 0.0064306557705 0.0073914247479 0.0081762635765 0.0087456659279 0.0090679961592 0.009122683588 0.0089026794337 0.0084157085677 
0.0076839639486 0.0067421158549 0.0056338052304 0.0044070928939 0.003109547477 0.0017837048718 -0.0040285197566 -0.0048319319042 -0.0055063256456 
-0.00606675499 -0.0065301830591 -0.0069135480167 -0.0072325674566 -0.0075010380449 -0.0077304898507 -0.0079300794808 -0.0081066328794 -0.0082647720057 
-0.0084070762153 -0.0085342485331 -0.0086452675691 -0.0087375162783 -0.0088068878551 -0.0088478764687 -0.0088536594284 -0.0088161889629 -0.0087263151797 
-0.0085739617454 -0.0083483629987 -0.0080384073663 -0.0076330853793 -0.007122083257 -0.0064965391821 -0.0057501722598 -0.0048644897009 -0.0038544273179 
-0.0027248720878 -0.0014879779951 -0.00016368408474 0.0012198382642 0.0026261861697 0.0040113819873 0.0053253350719 0.0065141905823 0.007523563931 
0.0083025018722 0.0088078412078 0.0090084944919 0.0088890394118 0.0084519519107 0.0077179197755 0.0067239307964 0.0055192232062 0.0041596248188 
0.0027011581708 0.0011939181516 -0.0053634089931 -0.0061931896929 -0.0068905729861 -0.0074714823037 -0.0079539433951 -0.0083560226418 -0.0086945363091 
-0.0089842912762 -0.0092377077811 -0.0094647008815 -0.009672724397 -0.0098669028836 -0.010050199139 -0.01022358217 -0.010386173585 -0.010535362134 
-0.010666887969 -0.010774896803 -0.010851983035 -0.010889234446 -0.010876312629 -0.010801566797 -0.01065224728 -0.010414813339 -0.010075396172 
-0.0096204085602 -0.0090373857537 -0.0083160724132 -0.0074354436035 -0.006401280544 -0.0052156921767 -0.0038879312269 -0.0024360482133 -0.00088794481563 
0.00071815949569 0.0023340187814 0.0039026090631 0.0053604862756 0.0066413294948 0.0076805564012 0.0084206996144 0.0088170099484 0.0088425138028 
0.0084916285858 0.0077814828043 0.0067503588653 0.005453174193 0.0039545347029 0.0023204513603 0.0006100888105 -0.0068452243027 -0.0077005660501 
-0.0084204689068 -0.009021614843 -0.009523036875 -0.0099439259487 -0.010302236813 -0.0106138597 -0.010892202275 -0.011148052143 -0.011389615415 
-0.011622650893 -0.011850640525 -0.012074957909 -0.012295005731 -0.012508316147 -0.012710603012 -0.012895781997 -0.013055961815 -0.013181440826 
-0.013260710953 -0.013280526406 -0.01322604849 -0.013081122412 -0.012828695543 -0.012451449842 -0.011932634501 -0.011257091943 -0.010405073767 
-0.0093652023242 -0.0081386296336 -0.0067299694102 -0.0051539089404 -0.0034367493602 -0.0016174123362 0.0002523478947 0.0021088083386 0.0038784701664 
0.0054817728848 0.0068383036399 0.0078732501037 0.0085245319391 0.0087496967443 0.0085314125625 0.0078803237291 0.0068342826783 0.0054535583768 
0.0038124707875 0.0019887505345 5.2449110951e-05 -0.0084775281091 -0.0093579722566 -0.010100151506 -0.010721352088 -0.011241537153 -0.011681016978 
-0.01205893934 -0.012392377129 -0.012695855224 -0.012981182252 -0.013257477107 -0.013531297551 -0.013806814097 -0.014085972386 -0.014368624865 