# vtk DataFile Version 4.1
vtk output
ASCII
DATASET STRUCTURED_GRID
DIMENSIONS 51 51 1
POINTS 2601 float
0 0 0 0.02 0 0 0.04 0 0 
0.06 0 0 0.08 0 0 0.1 0 0 
0.12 0 0 0.14 0 0 0.16 0 0 
0.18 0 0 0.2 0 0 0.22 0 0 
0.24 0 0 0.26 0 0 0.28 0 0 
0.3 0 0 0.32 0 0 0.34 0 0 
0.36 0 0 0.38 0 0 0.4 0 0 
0.42 0 0 0.44 0 0 0.46 0 0 
0.48 0 0 0.5 0 0 0.52 0 0 
0.54 0 0 0.56 0 0 0.58 0 0 
0.6 0 0 0.62 0 0 0.64 0 0 
0.66 0 0 0.68 0 0 0.7 0 0 
0.72 0 0 0.74 0 0 0.76 0 0 
0.78 0 0 0.8 0 0 0.82 0 0 
0.84 0 0 0.86 0 0 0.88 0 0 
0.9 0 0 0.92 0 0 0.94 0 0 
0.96 0 0 0.98 0 0 1 0 0 
0 0.02 0 0.02 0.02 0 0.04 0.02 0 
0.06 0.02 0 0.08 0.02 0 0.1 0.02 0 
0.12 0.02 0 0.14 0.02 0 0.16 0.02 0 
0.18 0.02 0 0.2 0.02 0 0.22 0.02 0 
0.24 0.02 0 0.26 0.02 0 0.28 0.02 0 
0.3 0.02 0 0.32 0.02 0 0.34 0.02 0 
0.36 0.02 0 0.38 0.02 0 0.4 0.02 0 
0.42 0.02 0 0.44 0.02 0 0.46 0.02 0 
0.48 0.02 0 0.5 0.02 0 0.52 0.02 0 
0.54 0.02 0 0.56 0.02 0 0.58 0.02 0 
0.6 0.02 0 0.62 0.02 0 0.64 0.02 0 
0.66 0.02 0 0.68 0.02 0 0.7 0.02 0 
0.72 0.02 0 0.74 0.02 0 0.76 0.02 0 
0.78 0.02 0 0.8 0.02 0 0.82 0.02 0 
0.84 0.02 0 0.86 0.02 0 0.88 0.02 0 
0.9 0.02 0 0.92 0.02 0 0.94 0.02 0 
0.96 0.02 0 0.98 0.02 0 1 0.02 0 
0 0.04 0 0.02 0.04 0 0.04 0.04 0 
0.06 0.04 0 0.08 0.04 0 0.1 0.04 0 
0.12 0.04 0 0.14 0.04 0 0.16 0.04 0 
0.18 0.04 0 0.2 0.04 0 0.22 0.04 0 
0.24 0.04 0 0.26 0.04 0 0.28 0.04 0 
0.3 0.04 0 0.32 0.04 0 0.34 0.04 0 
0.36 0.04 0 0.38 0.04 0 0.4 0.04 0 
0.42 0.04 0 0.44 0.04 0 0.46 0.04 0 
0.48 0.04 0 0.5 0.04 0 0.52 0.04 0 
0.54 0.04 0 0.56 0.04 0 0.58 0.04 0 
0.6 0.04 0 0.62 0.04 0 0.64 0.04 0 
0.66 0.04 0 0.68 0.04 0 0.7 0.04 0 
0.72 0.04 0 0.74 0.04 0 0.76 0.04 0 
0.78 0.04 0 0.8 0.04 0 0.82 0.04 0 
0.84 0.04 0 0.86 0.04 0 0.88 0.04 0 
0.9 0.04 0 0.92 0.04 0 0.94 0.04 0 
0.96 0.04 0 0.98 0.04 0 1 0.04 0 
0 0.06 0 0.02 0.06 0 0.04 0.06 0 
0.06 0.06 0 0.08 0.06 0 0.1 0.06 0 
0.12 0.06 0 0.14 0.06 0 0.16 0.06 0 
0.18 0.06 0 0.2 0.06 0 0.22 0.06 0 
0.24 0.06 0 0.26 0.06 0 0.28 0.06 0 
0.3 0.06 0 0.32 0.06 0 0.34 0.06 0 
0.36 0.06 0 0.38 0.06 0 0.4 0.06 0 
0.42 0.06 0 0.44 0.06 0 0.46 0.06 0 
0.48 0.06 0 0.5 0.06 0 0.52 0.06 0 
0.54 0.06 0 0.56 0.06 0 0.58 0.06 0 
0.6 0.06 0 0.62 0.06 0 0.64 0.06 0 
0.66 0.06 0 0.68 0.06 0 0.7 0.06 0 
0.72 0.06 0 0.74 0.06 0 0.76 0.06 0 
0.78 0.06 0 0.8 0.06 0 0.82 0.06 0 
0.84 0.06 0 0.86 0.06 0 0.88 0.06 0 
0.9 0.06 0 0.92 0.06 0 0.94 0.06 0 
0.96 0.06 0 0.98 0.06 0 1 0.06 0 
0 0.08 0 0.02 0.08 0 0.04 0.08 0 
0.06 0.08 0 0.08 0.08 0 0.1 0.08 0 
0.12 0.08 0 0.14 0.08 0 0.16 0.08 0 
0.18 0.08 0 0.2 0.08 0 0.22 0.08 0 
0.24 0.08 0 0.26 0.08 0 0.28 0.08 0 
0.3 0.08 0 0.32 0.08 0 0.34 0.08 0 
0.36 0.08 0 0.38 0.08 0 0.4 0.08 0 
0.42 0.08 0 0.44 0.08 0 0.46 0.08 0 
0.48 0.08 0 0.5 0.08 0 0.52 0.08 0 
0.54 0.08 0 0.56 0.08 0 0.58 0.08 0 
0.6 0.08 0 0.62 0.08 0 0.64 0.08 0 
0.66 0.08 0 0.68 0.08 0 0.7 0.08 0 
0.72 0.08 0 0.74 0.08 0 0.76 0.08 0 
0.78 0.08 0 0.8 0.08 0 0.82 0.08 0 
0.84 0.08 0 0.86 0.08 0 0.88 0.08 0 
0.9 0.08 0 0.92 0.08 0 0.94 0.08 0 
0.96 0.08 0 0.98 0.08 0 1 0.08 0 
0 0.1 0 0.02 0.1 0 0.04 0.1 0 
0.06 0.1 0 0.08 0.1 0 0.1 0.1 0 
0.12 0.1 0 0.14 0.1 0 0.16 0.1 0 
0.18 0.1 0 0.2 0.1 0 0.22 0.1 0 
0.24 0.1 0 0.26 0.1 0 0.28 0.1 0 
0.3 0.1 0 0.32 0.1 0 0.34 0.1 0 
0.36 0.1 0 0.38 0.1 0 0.4 0.1 0 
0.42 0.1 0 0.44 0.1 0 0.46 0.1 0 
0.48 0.1 0 0.5 0.1 0 0.52 0.1 0 
0.54 0.1 0 0.56 0.1 0 0.58 0.1 0 
0.6 0.1 0 0.62 0.1 0 0.64 0.1 0 
0.66 0.1 0 0.68 0.1 0 0.7 0.1 0 
0.72 0.1 0 0.74 0.1 0 0.76 0.1 0 
0.78 0.1 0 0.8 0.1 0 0.82 0.1 0 
0.84 0.1 0 0.86 0.1 0 0.88 0.1 0 
0.9 0.1 0 0.92 0.1 0 0.94 0.1 0 
0.96 0.1 0 0.98 0.1 0 1 0.1 0 
0 0.12 0 0.02 0.12 0 0.04 0.12 0 
0.06 0.12 0 0.08 0.12 0 0.1 0.12 0 
0.12 0.12 0 0.14 0.12 0 0.16 0.12 0 
0.18 0.12 0 0.2 0.12 0 0.22 0.12 0 
0.24 0.12 0 0.26 0.12 0 0.28 0.12 0 
0.3 0.12 0 0.32 0.12 0 0.34 0.12 0 
0.36 0.12 0 0.38 0.12 0 0.4 0.12 0 
0.42 0.12 0 0.44 0.12 0 0.46 0.12 0 
0.48 0.12 0 0.5 0.12 0 0.52 0.12 0 
0.54 0.12 0 0.56 0.12 0 0.58 0.12 0 
0.6 0.12 0 0.62 0.12 0 0.64 0.12 0 
0.66 0.12 0 0.68 0.12 0 0.7 0.12 0 
0.72 0.12 0 0.74 0.12 0 0.76 0.12 0 
0.78 0.12 0 0.8 0.12 0 0.82 0.12 0 
0.84 0.12 0 0.86 0.12 0 0.88 0.12 0 
0.9 0.12 0 0.92 0.12 0 0.94 0.12 0 
0.96 0.12 0 0.98 0.12 0 1 0.12 0 
0 0.14 0 0.02 0.14 0 0.04 0.14 0 
0.06 0.14 0 0.08 0.14 0 0.1 0.14 0 
0.12 0.14 0 0.14 0.14 0 0.16 0.14 0 
0.18 0.14 0 0.2 0.14 0 0.22 0.14 0 
0.24 0.14 0 0.26 0.14 0 0.28 0.14 0 
0.3 0.14 0 0.32 0.14 0 0.34 0.14 0 
0.36 0.14 0 0.38 0.14 0 0.4 0.14 0 
0.42 0.14 0 0.44 0.14 0 0.46 0.14 0 
0.48 0.14 0 0.5 0.14 0 0.52 0.14 0 
0.54 0.14 0 0.56 0.14 0 0.58 0.14 0 
0.6 0.14 0 0.62 0.14 0 0.64 0.14 0 
0.66 0.14 0 0.68 0.14 0 0.7 0.14 0 
0.72 0.14 0 0.74 0.14 0 0.76 0.14 0 
0.78 0.14 0 0.8 0.14 0 0.82 0.14 0 
0.84 0.14 0 0.86 0.14 0 0.88 0.14 0 
0.9 0.14 0 0.92 0.14 0 0.94 0.14 0 
0.96 0.14 0 0.98 0.14 0 1 0.14 0 
0 0.16 0 0.02 0.16 0 0.04 0.16 0 
0.06 0.16 0 0.08 0.16 0 0.1 0.16 0 
0.12 0.16 0 0.14 0.16 0 0.16 0.16 0 
0.18 0.16 0 0.2 0.16 0 0.22 0.16 0 
0.24 0.16 0 0.26 0.16 0 0.28 0.16 0 
0.3 0.16 0 0.32 0.16 0 0.34 0.16 0 
0.36 0.16 0 0.38 0.16 0 0.4 0.16 0 
0.42 0.16 0 0.44 0.16 0 0.46 0.16 0 
0.48 0.16 0 0.5 0.16 0 0.52 0.16 0 
0.54 0.16 0 0.56 0.16 0 0.58 0.16 0 
0.6 0.16 0 0.62 0.16 0 0.64 0.16 0 
0.66 0.16 0 0.68 0.16 0 0.7 0.16 0 
0.72 0.16 0 0.74 0.16 0 0.76 0.16 0 
0.78 0.16 0 0.8 0.16 0 0.82 0.16 0 
0.84 0.16 0 0.86 0.16 0 0.88 0.16 0 
0.9 0.16 0 0.92 0.16 0 0.94 0.16 0 
0.96 0.16 0 0.98 0.16 0 1 0.16 0 
0 0.18 0 0.02 0.18 0 0.04 0.18 0 
0.06 0.18 0 0.08 0.18 0 0.1 0.18 0 
0.12 0.18 0 0.14 0.18 0 0.16 0.18 0 
0.18 0.18 0 0.2 0.18 0 0.22 0.18 0 
0.24 0.18 0 0.26 0.18 0 0.28 0.18 0 
0.3 0.18 0 0.32 0.18 0 0.34 0.18 0 
0.36 0.18 0 0.38 0.18 0 0.4 0.18 0 
0.42 0.18 0 0.44 0.18 0 0.46 0.18 0 
0.48 0.18 0 0.5 0.18 0 0.52 0.18 0 
0.54 0.18 0 0.56 0.18 0 0.58 0.18 0 
0.6 0.18 0 0.62 0.18 0 0.64 0.18 0 
0.66 0.18 0 0.68 0.18 0 0.7 0.18 0 
0.72 0.18 0 0.74 0.18 0 0.76 0.18 0 
0.78 0.18 0 0.8 0.18 0 0.82 0.18 0 
0.84 0.18 0 0.86 0.18 0 0.88 0.18 0 
0.9 0.18 0 0.92 0.18 0 0.94 0.18 0 
0.96 0.18 0 0.98 0.18 0 1 0.18 0 
0 0.2 0 0.02 0.2 0 0.04 0.2 0 
0.06 0.2 0 0.08 0.2 0 0.1 0.2 0 
0.12 0.2 0 0.14 0.2 0 0.16 0.2 0 
0.18 0.2 0 0.2 0.2 0 0.22 0.2 0 
0.24 0.2 0 0.26 0.2 0 0.28 0.2 0 
0.3 0.2 0 0.32 0.2 0 0.34 0.2 0 
0.36 0.2 0 0.38 0.2 0 0.4 0.2 0 
0.42 0.2 0 0.44 0.2 0 0.46 0.2 0 
0.48 0.2 0 0.5 0.2 0 0.52 0.2 0 
0.54 0.2 0 0.56 0.2 0 0.58 0.2 0 
0.6 0.2 0 0.62 0.2 0 0.64 0.2 0 
0.66 0.2 0 0.68 0.2 0 0.7 0.2 0 
0.72 0.2 0 0.74 0.2 0 0.76 0.2 0 
0.78 0.2 0 0.8 0.2 0 0.82 0.2 0 
0.84 0.2 0 0.86 0.2 0 0.88 0.2 0 
0.9 0.2 0 0.92 0.2 0 0.94 0.2 0 
0.96 0.2 0 0.98 0.2 0 1 0.2 0 
0 0.22 0 0.02 0.22 0 0.04 0.22 0 
0.06 0.22 0 0.08 0.22 0 0.1 0.22 0 
0.12 0.22 0 0.14 0.22 0 0.16 0.22 0 
0.18 0.22 0 0.2 0.22 0 0.22 0.22 0 
0.24 0.22 0 0.26 0.22 0 0.28 0.22 0 
0.3 0.22 0 0.32 0.22 0 0.34 0.22 0 
0.36 0.22 0 0.38 0.22 0 0.4 0.22 0 
0.42 0.22 0 0.44 0.22 0 0.46 0.22 0 
0.48 0.22 0 0.5 0.22 0 0.52 0.22 0 
0.54 0.22 0 0.56 0.22 0 0.58 0.22 0 
0.6 0.22 0 0.62 0.22 0 0.64 0.22 0 
0.66 0.22 0 0.68 0.22 0 0.7 0.22 0 
0.72 0.22 0 0.74 0.22 0 0.76 0.22 0 
0.78 0.22 0 0.8 0.22 0 0.82 0.22 0 
0.84 0.22 0 0.86 0.22 0 0.88 0.22 0 
0.9 0.22 0 0.92 0.22 0 0.94 0.22 0 
0.96 0.22 0 0.98 0.22 0 1 0.22 0 
0 0.24 0 0.02 0.24 0 0.04 0.24 0 
0.06 0.24 0 0.08 0.24 0 0.1 0.24 0 
0.12 0.24 0 0.14 0.24 0 0.16 0.24 0 
0.18 0.24 0 0.2 0.24 0 0.22 0.24 0 
0.24 0.24 0 0.26 0.24 0 0.28 0.24 0 
0.3 0.24 0 0.32 0.24 0 0.34 0.24 0 
0.36 0.24 0 0.38 0.24 0 0.4 0.24 0 
0.42 0.24 0 0.44 0.24 0 0.46 0.24 0 
0.48 0.24 0 0.5 0.24 0 0.52 0.24 0 
0.54 0.24 0 0.56 0.24 0 0.58 0.24 0 
0.6 0.24 0 0.62 0.24 0 0.64 0.24 0 
0.66 0.24 0 0.68 0.24 0 0.7 0.24 0 
0.72 0.24 0 0.74 0.24 0 0.76 0.24 0 
0.78 0.24 0 0.8 0.24 0 0.82 0.24 0 
0.84 0.24 0 0.86 0.24 0 0.88 0.24 0 
0.9 0.24 0 0.92 0.24 0 0.94 0.24 0 
0.96 0.24 0 0.98 0.24 0 1 0.24 0 
0 0.26 0 0.02 0.26 0 0.04 0.26 0 
0.06 0.26 0 0.08 0.26 0 0.1 0.26 0 
0.12 0.26 0 0.14 0.26 0 0.16 0.26 0 
0.18 0.26 0 0.2 0.26 0 0.22 0.26 0 
0.24 0.26 0 0.26 0.26 0 0.28 0.26 0 
0.3 0.26 0 0.32 0.26 0 0.34 0.26 0 
0.36 0.26 0 0.38 0.26 0 0.4 0.26 0 
0.42 0.26 0 0.44 0.26 0 0.46 0.26 0 
0.48 0.26 0 0.5 0.26 0 0.52 0.26 0 
0.54 0.26 0 0.56 0.26 0 0.58 0.26 0 
0.6 0.26 0 0.62 0.26 0 0.64 0.26 0 
0.66 0.26 0 0.68 0.26 0 0.7 0.26 0 
0.72 0.26 0 0.74 0.26 0 0.76 0.26 0 
0.78 0.26 0 0.8 0.26 0 0.82 0.26 0 
0.84 0.26 0 0.86 0.26 0 0.88 0.26 0 
0.9 0.26 0 0.92 0.26 0 0.94 0.26 0 
0.96 0.26 0 0.98 0.26 0 1 0.26 0 
0 0.28 0 0.02 0.28 0 0.04 0.28 0 
0.06 0.28 0 0.08 0.28 0 0.1 0.28 0 
0.12 0.28 0 0.14 0.28 0 0.16 0.28 0 
0.18 0.28 0 0.2 0.28 0 0.22 0.28 0 
0.24 0.28 0 0.26 0.28 0 0.28 0.28 0 
0.3 0.28 0 0.32 0.28 0 0.34 0.28 0 
0.36 0.28 0 0.38 0.28 0 0.4 0.28 0 
0.42 0.28 0 0.44 0.28 0 0.46 0.28 0 
0.48 0.28 0 0.5 0.28 0 0.52 0.28 0 
0.54 0.28 0 0.56 0.28 0 0.58 0.28 0 
0.6 0.28 0 0.62 0.28 0 0.64 0.28 0 
0.66 0.28 0 0.68 0.28 0 0.7 0.28 0 
0.72 0.28 0 0.74 0.28 0 0.76 0.28 0 
0.78 0.28 0 0.8 0.28 0 0.82 0.28 0 
0.84 0.28 0 0.86 0.28 0 0.88 0.28 0 
0.9 0.28 0 0.92 0.28 0 0.94 0.28 0 
0.96 0.28 0 0.98 0.28 0 1 0.28 0 
0 0.3 0 0.02 0.3 0 0.04 0.3 0 
0.06 0.3 0 0.08 0.3 0 0.1 0.3 0 
0.12 0.3 0 0.14 0.3 0 0.16 0.3 0 
0.18 0.3 0 0.2 0.3 0 0.22 0.3 0 
0.24 0.3 0 0.26 0.3 0 0.28 0.3 0 
0.3 0.3 0 0.32 0.3 0 0.34 0.3 0 
0.36 0.3 0 0.38 0.3 0 0.4 0.3 0 
0.42 0.3 0 0.44 0.3 0 0.46 0.3 0 
0.48 0.3 0 0.5 0.3 0 0.52 0.3 0 
0.54 0.3 0 0.56 0.3 0 0.58 0.3 0 
0.6 0.3 0 0.62 0.3 0 0.64 0.3 0 
0.66 0.3 0 0.68 0.3 0 0.7 0.3 0 
0.72 0.3 0 0.74 0.3 0 0.76 0.3 0 
0.78 0.3 0 0.8 0.3 0 0.82 0.3 0 
0.84 0.3 0 0.86 0.3 0 0.88 0.3 0 
0.9 0.3 0 0.92 0.3 0 0.94 0.3 0 
0.96 0.3 0 0.98 0.3 0 1 0.3 0 
0 0.32 0 0.02 0.32 0 0.04 0.32 0 
0.06 0.32 0 0.08 0.32 0 0.1 0.32 0 
0.12 0.32 0 0.14 0.32 0 0.16 0.32 0 
0.18 0.32 0 0.2 0.32 0 0.22 0.32 0 
0.24 0.32 0 0.26 0.32 0 0.28 0.32 0 
0.3 0.32 0 0.32 0.32 0 0.34 0.32 0 
0.36 0.32 0 0.38 0.32 0 0.4 0.32 0 
0.42 0.32 0 0.44 0.32 0 0.46 0.32 0 
0.48 0.32 0 0.5 0.32 0 0.52 0.32 0 
0.54 0.32 0 0.56 0.32 0 0.58 0.32 0 
[...]
CELL_DATA 2500
FIELD FieldData 1
pressure 1 2500 double
0.0061879769131 0.0061184505823 0.0059240655677 0.0056461211121 0.0053264338634 0.004998374291 0.0046862416224 0.0044069415874 0.0041719570663 
0.0039889970204 0.0038632258285 0.0037981133335 0.0037959776517 0.003858301252 0.0039858994942 0.0041790048191 0.0044373018637 0.0047599213823 
0.0051453855085 0.0055914967427 0.0060951744095 0.0066522570107 0.0072572989327 0.0079033911952 0.0085820265372 0.00928301152 0.00999405387 
0.01070193443 0.011392709254 0.012051834556 0.012664596535 0.01321663841 0.013694552021 0.014086501868 0.014382846895 0.014576723117 
0.014664550529 0.01464643138 0.014526414425 0.014312611167 0.014017164315 0.013656084296 0.013248983462 0.012818743612 0.012391149306 
0.011994388413 0.011658288929 0.01141239254 0.011280787454 0.011268380042 0.0062516807368 0.006182447229 0.0060186110452 0.0057907189022 
0.0055277044129 0.0052544720304 0.0049910031255 0.0047526029667 0.0045505925759 0.0043930956071 0.0042857733824 0.0042324461909 0.0042355845824 
0.0042966813389 0.004416521642 0.0045953610858 0.0048330119762 0.0051288379299 0.0054816650154 0.005889629119 0.0063499881296 0.0068589299288 
0.0074114036214 0.0080009940524 0.0086198527336 0.0092586997654 0.0099059416768 0.010549590913 0.011177072278 0.011775301692 0.012331098208 
0.012831666285 0.013265130445 0.013621095592 0.013891201402 0.014069636922 0.01415358195 0.014143545205 0.014043576187 0.013861337336 
0.013608034639 0.013298216332 0.012949457184 0.012581944724 0.01221796493 0.011881232923 0.011595873448 0.011384848051 0.011267322755 
0.011255962909 0.0064431771458 0.0063454596708 0.0061811700846 0.0059713229716 0.0057364403874 0.0054953641858 0.00526421054 0.005055909055 
0.0048802657232 0.0047443642277 0.0046531140673 0.0046098048435 0.0046165904773 0.004674870605 0.0047855541966 0.0049491984427 0.0051660279384 
0.0054358551521 0.0057579351172 0.0061307904633 0.0065520374812 0.0070182338453 0.0075247594019 0.008065736023 0.0086339930753 0.0092210926914 
0.0098159401511 0.010407578923 0.010984484532 0.011534644541 0.01204595389 0.012506672708 0.012905930196 0.01323424974 0.013484065283 
0.013650196406 0.013730249555 0.013724915989 0.013638143364 0.013477166793 0.013252395791 0.012977163852 0.012667354413 0.012340917813 
0.01201728463 0.011716660222 0.0114591583 0.011263809113 0.011147666391 0.011126165995 0.006727566269 0.006577270991 0.0063876718002 
0.0061721173461 0.0059450473018 0.0057202606303 0.0055097260521 0.0053230211594 0.0051673430004 0.005047868353 0.0049682392449 0.0049310294468 
0.0049381251849 0.0049909937201 0.0050908299188 0.0052385852383 0.0054349013057 0.0056799828177 0.0059734452278 0.0063141635569 0.006700135904 
0.0071283656934 0.0075947633489 0.0080940708376 0.0086198188794 0.0091643341368 0.0097169282779 0.010267440343 0.010805091319 0.011318585712 
0.011796495403 0.012227705631 0.012601905346 0.012910097459 0.013145099381 0.013302001042 0.013378546899 0.013375411217 0.013296341964 
0.013148157596 0.012940592026 0.012685994273 0.012398898575 0.012095486612 0.011792964581 0.011508877549 0.011260394036 0.011063651555 
0.010933374166 0.010883209086 0.0070637386403 0.006846164509 0.0066154909361 0.006379502891 0.0061473385111 0.0059277560441 0.0057282109037 
0.0055545631328 0.0054112166696 0.0053014451415 0.0052277337977 0.0051920636534 0.0051961173089 0.005241399577 0.0053292712514 0.0054609065353 
0.0056371975685 0.0058586324351 0.0061251656958 0.0064360897911 0.0067899082177 0.0071842105652 0.0076155535408 0.0080793586149 0.0085698423275 
0.0090799981528 0.009599475342 0.010118653861 0.010627237315 0.011114346662 0.011568896636 0.011980037157 0.012337641681 0.012632817868 
0.012858410148 0.013009459597 0.013083585224 0.013081253228 0.013005906817 0.012863938771 0.012664501238 0.012419160457 0.012141416771 
0.011846120792 0.011548823793 0.011265106266 0.011009937196 0.01079713325 0.010639004584 0.010546207792 0.0074155141984 0.0071247682588 
0.0068454379831 0.006580701767 0.0063346258819 0.0061111130883 0.0059134415558 0.0057442120508 0.0056054851887 0.0054989503871 0.0054260670115 
0.0053881746826 0.0053865736108 0.0054225644428 0.0054974385648 0.0056124221971 0.005768586405 0.0059667340737 0.0062072691729 0.0064900501852 
0.0068142308367 0.0071780959071 0.0075789047907 0.0080127587127 0.0084745083173 0.0089577170223 0.0094523386878 0.009949051223 0.010437835285 
0.010907986605 0.011348486743 0.011748445303 0.01209759578 0.012386819615 0.012608666156 0.01275783105 0.012831553813 0.012829897393 
0.012755878728 0.012615429842 0.012417182967 0.012172088882 0.011892893776 0.011593513907 0.011288357461 0.010991648318 0.010716805357 
0.010475919218 0.01027933029 0.010135191136 0.0077544354764 0.0073903099118 0.0070593350076 0.0067605449015 0.0064935632302 0.0062582578939 
0.0060545876653 0.0058825829815 0.0057423559418 0.0056341086336 0.005558156057 0.005514972625 0.0055052430283 0.0055298877497 0.0055900451564 
0.0056870080684 0.005822119818 0.0059966345824 0.0062115464959 0.006467394994 0.0067640581771 0.0071005489044 0.0074748289679 0.0078836552125 
0.0083224699116 0.0087853462228 0.0092625705453 0.0097448984103 0.010222433675 0.010684452672 0.011119771342 0.01151719372 0.011866023776 
0.012156613909 0.012380915371 0.012532989994 0.012609440121 0.01260971511 0.012536259095 0.012394476121 0.012192504332 0.011940809327 
0.011651626029 0.011338295243 0.011014552894 0.010693833491 0.010388641099 0.010110015919 0.0098670732771 0.0096665008483 0.0080577651517 
0.0076221034727 0.0072381273409 0.0069014752643 0.0066083555324 0.0063555610115 0.0061404221884 0.0059607405069 0.0058147241809 0.0057009649828 
0.0056184726176 0.005566742414 0.0055458113204 0.0055562679961 0.0055992054324 0.0056761191445 0.0057887575169 0.0059389312402 0.0061282915351 
0.0063580908025 0.0066289411262 0.0069405847235 0.0072916877176 0.0076796662278 0.0081005537611 0.0085489198573 0.0090154762332 0.0094908484677 
0.0099651475218 0.010427471756 0.010866272885 0.011269815071 0.011626708942 0.011926492774 0.012160224145 0.01232103849 0.012404627373 
0.012409589814 0.01233761615 0.012193475881 0.011984798051 0.011721653809 0.011415972948 0.011080845988 0.010729776888 0.010375954439 
0.010031598892 0.0097074110255 0.0094121012597 0.0091519082689 0.0083053520551 0.0078001750087 0.0073627419558 0.0069861827945 0.0066640855742 
0.0063906770967 0.0061608632542 0.005970211186 0.0058149512211 0.0056920323909 0.0055992131473 0.0055351393431 0.0054993689349 0.0054923293993 
0.0055152134443 0.0055698233767 0.0056583724797 0.0057832517792 0.0059467737556 0.0061509065868 0.0063970112779 0.0066855910858 0.0070160604275 
0.007386540749 0.0077936934404 0.0082326023846 0.0086945548547 0.0091698433126 0.0096485021542 0.010119327118 0.010570240153 0.010988759962 
0.011362560746 0.011680091409 0.011931217421 0.012107839224 0.012204435713 0.01221848046 0.012150683753 0.01200502559 0.011788563152 
0.011511019756 0.011184187504 0.010821198848 0.010435738322 0.010041269665 0.0096503416412 0.009274006202 0.0089213362898 0.0085989745557 
0.0084782113141 0.007905859295 0.0074158973752 0.0069994271547 0.0066476345843 0.0063522180076 0.0061056204704 0.0059011750085 0.0057332371649 
0.0055973142561 0.0054901609984 0.0054098093363 0.0053555236639 0.0053276931491 0.0053276765184 0.0053576083453 0.0054201713461 0.0055183404515 
0.0056551077753 0.0058331982832 0.0060547842822 0.0063212054363 0.0066327014892 0.0069881678777 0.0073849477776 0.0078186757965 0.0082814236176 
0.0087629608168 0.0092532006233 0.0097405516102 0.010212276819 0.010654972214 0.011055149271 0.011399895236 0.011677573073 0.011878512893 
0.011995638953 0.01202497358 0.011965963258 0.01182158365 0.011598199473 0.011305180695 0.010954304912 0.010559002671 0.010133522073 
0.0096920956906 0.0092481824821 0.0088138288128 0.0083991488342 0.0080118742095 0.0085588587062 0.0079226431055 0.0073825298972 0.0069275493836 
0.0065463740838 0.0062281236615 0.0059628490574 0.0057418485468 0.0055578835449 0.0054053081821 0.0052801088362 0.005179859963 0.0051036170888 
0.0050517682449 0.0050258540271 0.0050283567896 0.0050624579888 0.0051317667616 0.0052400263816 0.0053908056664 0.0055871819423 0.005831423014 
0.0061246781339 0.0064666916002 0.006855555062 0.0072875148326 0.0077557068321 0.0082492227335 0.008757858644 0.0092695978525 0.0097709543354 
0.010247452041 0.010684227773 0.01106673354 0.011381501337 0.011616920663 0.011763968719 0.011816827707 0.011773325148 0.01163514309 
0.01140776122 0.011100125981 0.010724069525 0.010293533865 0.0098236801677 0.0093299743801 0.0088273335199 0.0083293906321 0.0078478944367 
0.007392211798 0.0085317721247 0.0078359212696 0.0072487887018 0.00675713238 0.0063470751075 0.0060052773637 0.0057196335008 0.0054796888351 
0.0052768661408 0.0051045494547 0.0049580610871 0.0048345674516 0.0047329431532 0.0046536072441 0.0045983312265 0.0045700135841 0.0045724190008 
0.0046098857046 0.0046870068498 0.0048082920279 0.0049778157062 0.0051988614965 0.0054735742402 0.0058026348489 0.0061849750401 0.0066175517161 
0.0070949360773 0.0076054337314 0.008138783713 0.0086825569079 0.0092224698231 0.009742855466 0.010227280312 0.010659287038 0.011023228611 
0.011305143992 0.011493611953 0.011580510242 0.011561605093 0.011436903161 0.011210715775 0.010891413323 0.010490882657 0.010023737379 
0.0095063623116 0.0089558916349 0.0083892192005 0.0078221172607 0.0072685000904 0.0067398220704 0.0083830332207 0.0076320941907 0.0070011488819 
0.0064746580373 0.0060363424276 0.0056706214505 0.0053634558966 0.0051028149454 0.0048788922765 0.004684156207 0.0045132962824 0.0043631105217 
0.0042323568391 0.0041215736625 0.0040328660927 0.0039696548335 0.0039363896315 0.0039382318779 0.0039807111238 0.0040693601403 0.0042093346263 
0.0044050261951 0.0046596801018 0.0049750315793 0.0053509772944 0.0057853021923 0.0062745564017 0.0068061362595 0.0073698677968 0.0079529804965 
0.0085403929203 0.009115166326 0.0096591256334 0.010153636236 0.010580508012 0.010922978965 0.011166712943 0.011300731604 0.011318193233 
0.01121693343 0.010999697413 0.010674021222 0.01025175717 0.0097482823164 0.0091814691211 0.0085705257866 0.0079348221077 0.0072928011817 
0.0066610411453 0.0060534846025 0.0080996273789 0.0072981156751 0.0066265645211 0.0060672778989 0.0056017426049 0.0052122752222 0.0048829929038 
0.0046003349966 0.0043532921652 0.0041334523973 0.0039349375435 0.003754274427 0.0035902208408 0.0034435527867 0.003316815498 0.0032140417669 
0.0031404417848 0.0031020674525 0.0031054524592 0.0031572297855 0.0032637305325 0.003430570761 0.0036622356625 0.0039616730255 0.0043299118457 
0.0047657268608 0.0052681353832 0.0058237366121 0.0064226364505 0.0070518460117 0.0076955411935 0.0083354819161 0.0089516186989 0.0095228901792 
0.010028191954 0.010447473996 0.010762901036 0.010959989797 0.011028622268 0.010963829579 0.010766250375 0.010442192662 0.010003268436 
0.0094656208083 0.0088488154331 0.0081745105261 0.0074650421102 0.0067420566439 0.0060252928622 0.0053315683231 0.0076692309598 0.0068218106744 
0.0061131702568 0.0055235704221 0.0050323196983 0.0046196567123 0.0042678696662 0.0039618957922 0.0036895812191 0.0034417276149 0.0032120082977 
0.0029968033494 0.002794981172 0.0026076423506 0.0024378363521 0.0022902574847 0.0021709220829 0.0020868250048 0.0020455721459 0.0020549873165 
0.0021226947801 0.0022556816539 0.0024598469492 0.0027395470707 0.0030971530768 0.0035326491635 0.0040477180897 0.004628809636 0.0052664863902 
0.005947709613 0.0066560378778 0.0073719705419 0.0080735087068 0.0087369513229 0.009337916507 0.0098525526833 0.010258876755 0.010538148813 
0.010676169043 0.010664368067 0.010500562476 0.010189267122 0.0097414962601 0.0091740434315 0.008508296286 0.0077687043857 0.0069810607441 
0.0061707703653 0.005361258275 0.0045726234891 0.0070805885722 0.0061923936122 0.0054506490049 0.0048335819534 0.0043183175256 0.0038830369698 
0.0035082565752 0.0031775046637 0.0028776016393 0.00259868898 0.0023341049384 0.0020801696651 0.0018359192809 0.0016028135601 0.0013844307437 
0.0011861534999 0.0010148428953 0.00087849350749 0.00078586294133 0.00074607164094 0.00076817192111 0.00086068785603 0.0010311300687 0.001285491541 
0.0016277303293 0.0020592361786 0.0025843136472 0.0031906184245 0.0038691687363 0.0046071138473 0.0053876231515 0.0061900737381 0.0069905250493 
0.007762484279 0.0084779595736 0.0091087765067 0.0096281024283 0.010012087593 0.010241496844 0.010303177927 0.010191199977 0.009907505766 
0.0094619587528 0.0088717300782 0.0081600537464 0.0073544653144 0.0064847109616 0.0055805518239 0.0046696831088 0.0037759427708 0.0063239615254 
0.0054006425255 0.004630088243 0.0039884957257 0.003450865616 0.0029934270615 0.0025950567678 0.0022380115866 0.001908208859 0.001595223594 
0.0012921184759 0.00099518354524 0.00070363443918 0.00041929736694 0.00014629273468 -0.00010928257702 -0.00033968131437 -0.00053584984444 -0.00068779859514 
-0.0007850051287 -0.0008168536065 -0.00077311182152 -0.00064444394035 -0.0004229539495 -0.00010275564776 0.00031941041091 0.0008485026894 0.0014779561415 
0.002197606627 0.0029953269578 0.0038542936081 0.0047530283028 0.005665767037 0.0065631639051 0.0074133462352 0.0081833163381 0.0088406594924 
0.0093554728847 0.0097023815287 0.0098624623326 0.0098248664884 0.0095879244949 0.0091595469154 0.008556801485 0.0078046484186 0.0069339346139 
0.0059788585516 0.0049741932034 0.0039525735443 0.0029421147614 0.0053912697457 0.0044387844522 0.0036437945099 0.0029805753016 0.0024221669049 
0.0019430185741 0.0015205209499 0.0011357782718 0.00077388371136 0.00042388831655 7.8595308973e-05 -0.00026573290274 -0.00060970093517 -0.00095111106633 
-0.0012852880502 -0.001605399875 -0.0019027826314 -0.002167279956 -0.0023876073393 -0.0025517504906 -0.002647405239 -0.0026624636581 -0.0025855465352 
-0.0024065742125 -0.0021173499378 -0.0017120747614 -0.0011874960008 -0.00053939167497 0.00021913586909 0.0010774705244 0.0020193288138 0.0030227748794 
0.0040604718808 0.0051002832138 0.0061062848865 0.007040215984 0.0078633515236 0.0085387273053 0.0090335823745 0.0093218188153 0.0093862228264 
0.0092201610417 0.0088284777881 0.0082273837973 0.0074432453597 0.0065103397501 0.005467806484 0.0043561535226 0.003213735881 0.0020735942888 
0.004276041078 0.0033004645717 0.0024854291678 0.0018035038059 0.0012259802921 0.00072570235151 0.00027870092472 -0.00013499112513 -0.00053105915078 
-0.00092095435307 -0.0013121245553 -0.0017083324417 -0.0021100028743 -0.0025145687389 -0.0029168041754 -0.0033091462746 -0.0036820134115 -0.0040241320467 
-0.004322885338 -0.0045646970487 -0.00473546292 -0.0048210388422 -0.0048077907843 -0.0046832050526 -0.0044365480311 -0.0040595516055 -0.0035471000894 
-0.0028889529019 -0.0020969483555 -0.0011799772411 -0.00015326557491 0.0009613053258 0.0021352292754 0.0033338017085 0.0045170232367 0.0056410409816 
0.0066601456167 0.0075292799737 0.0082069356559 0.0086582239689 0.0088578201452 0.0087924154712 0.0084622945868 0.0078817067389 0.0070778304958 
0.0060883307051 0.0049577377597 0.0037330850448 0.0024593596692 0.0011753150199 0.0029734611891 0.0019809503651 0.0011503407712 0.00045274717321 
-0.00014208146472 -0.00066275241857 -0.0011344855093 -0.0015782457454 -0.0020104496394 -0.002443022955 -0.0028836530743 -0.003336131299 -0.0038007208855 
-0.0042745165249 -0.0047517816757 -0.0052242638596 -0.0056814969739 -0.0061111051765 -0.0064991257827 -0.0068303693149 -0.0070888335787 -0.0072581860549 
-0.0073223255718 -0.0072660310079 -0.0070757048412 -0.0067402354906 -0.00625208519 -0.0055946243367 -0.0047777042379 -0.003807325173 -0.0026968831674 
-0.0014675150763 -0.00014830339518 0.0012239043145 0.0026052078934 0.0039460061698 0.005193050658 0.0062921978325 0.0071917632075 0.0078462643536 
0.0082202145009 0.0082915177189 0.0080539541434 0.0075182652404 0.006711480628 0.0056743698056 0.0044572164113 0.0031144231785 0.0016986680815 
0.00025537108078 0.0014805914812 0.00047739070332 -0.00036422961958 -0.0010743567945 -0.001684578073 -0.0022247864398 -0.0027213255065 -0.0031960665488 
-0.0036660994044 -0.0041437991607 -0.0046370983606 -0.0051498502953 -0.0056822127489 -0.0062310138495 -0.0067900844084 -0.0073505569292 -0.0079011422891 
-0.0084284018939 -0.0089170366197 -0.0093502146594 -0.009709959265 -0.0099776152638 -0.010134410592 -0.010162126137 -0.01004388442 -0.0097650643415 
-0.0093143288859 -0.0086735974984 -0.0078442104782 -0.0068293784342 -0.0056399998036 -0.0042956409187 -0.0028251608333 -0.0012668856852 0.00033181030421 
0.001915662063 0.0034235255657 0.0047912978991 0.005955696587 0.0068587079557 0.0074523455797 0.0077031901865 0.0075960545724 0.0071360844507 
0.0063487176281 0.0052772003848 0.0039777702085 0.0025130639214 0.00094466127611 -0.00067420434877 -0.00020341914435 -0.0012110849707 -0.0020591801784 
-0.0027787152446 -0.0034023648237 -0.0039611021033 -0.0044822402412 -0.0049884574878 -0.0054974718281 -0.0060221115143 -0.0065705989741 -0.0071469252848 
-0.0077512391382 -0.0083802086982 -0.0090273394615 -0.0096832488401 -0.010335910294 -0.010970887359 -0.011571581763 -0.012119520876 -0.012594709221 
-0.012976067399 -0.013241979668 -0.013370968072 -0.013342505682 -0.01313797398 -0.012741769758 -0.012135721284 -0.011309407764 -0.010262898841 
-0.009003490839 -0.0075481036517 -0.0059243312935 -0.004171042202 -0.0023383571257 -0.00048681018251 0.0013144901474 0.0029908302514 0.0044660161164 
0.0056675164346 0.006532272878 0.0070125859212 0.0070812682122 0.0067351382649 0.0059959851655 0.0049084251001 0.0035345823811 0.0019461554716 
0.0002149802089 -0.0015965344933 -0.0020772843977 -0.0030834412091 -0.0039336783072 -0.0046595829855 -0.0052946097682 -0.0058705736833 -0.0064155998358 
-0.0069530959289 -0.0075014008715 -0.0080738445318 -0.0086790277668 -0.009321193931 -0.010000611327 -0.0107139219 -0.011454437724 -0.012212385807 
-0.012975114867 -0.01372728589 -0.014451072684 -0.015126400455 -0.015731250801 -0.016242061121 -0.016634244902 -0.01688285588 -0.016963410759 
-0.016852862126 -0.016530635313 -0.01597932962 -0.015175117202 -0.014113742633 -0.012797674345 -0.011239940974 -0.0094656122991 -0.0075128859718 
-0.0054335681895 -0.0032926944482 -0.001167027524 0.00085779434479 0.0026915885578 0.0042453933581 0.0054383656964 0.0062051909745 0.006503054828 
0.0063169808853 0.005662293789 0.0045832300536 0.003147323213 0.0014360329188 -0.00046708025622 -0.0024888388879 -0.0041376778519 -0.0051368662716 
-0.0059852563883 -0.0067145918411 -0.0073587596089 -0.007950173481 -0.0085176364345 -0.0090852484599 -0.0096720085331 -0.010291841625 -0.010953855838 
-0.011662696346 -0.012418910862 -0.013219277903 -0.01405707672 -0.014922298106 -0.015801809515 -0.016679497041 -0.017536412094 -0.018350953386 
-0.019099116217 -0.019754841596 -0.020290497338 -0.020677522055 -0.020887261005 -0.020892023417 -0.020666413501 -0.020189132323 -0.019429518445 
-0.0183741156 -0.01701933779 -0.015373002848 -0.013456234283 -0.011305091326 -0.0089716608851 -0.00652429347 -0.0040466325089 -0.0016350960614 
0.00060545339826 0.002567943439 0.004151035015 0.0052681800409 0.0058567356381 0.0058856581608 0.0053600867504 0.0043212957525 0.0028411555942 
0.0010113269145 -0.0010713790449 -0.0033211879595 -0.0063793822254 -0.0073668998897 -0.0082099095565 -0.0089398358339 -0.0095906330621 -0.010195082984 
-0.010782565471 -0.011377879832 -0.012000772476 -0.012665905271 -0.013383068978 -0.014157504199 -0.014990238941 -0.015878388853 -0.016815395229 
-0.0177911977 -0.018792354086 -0.019802130105 -0.020800587968 -0.021764706614 -0.022668568521 -0.02348364937 -0.024179247467 -0.024723090254 
-0.025082155922 -0.02522375312 -0.025116929031 -0.024734401992 -0.024045166937 -0.023020224126 -0.021649029822 -0.019932900838 -0.017887501196 
-0.015545075516 -0.012956259407 -0.010191092775 -0.0073387971801 -0.0045058525045 -0.0018119468262 0.00061647896788 0.0026550719083 0.0041923040246 