# vtk DataFile Version 4.1
vtk output
ASCII
DATASET STRUCTURED_GRID
DIMENSIONS 51 51 1
POINTS 2601 float
0 0 0 0.02 0 0 0.04 0 0 
0.06 0 0 0.08 0 0 0.1 0 0 
0.12 0 0 0.14 0 0 0.16 0 0 
0.18 0 0 0.2 0 0 0.22 0 0 
0.24 0 0 0.26 0 0 0.28 0 0 
0.3 0 0 0.32 0 0 0.34 0 0 
0.36 0 0 0.38 0 0 0.4 0 0 
0.42 0 0 0.44 0 0 0.46 0 0 
0.48 0 0 0.5 0 0 0.52 0 0 
0.54 0 0 0.56 0 0 0.58 0 0 
0.6 0 0 0.62 0 0 0.64 0 0 
0.66 0 0 0.68 0 0 0.7 0 0 
0.72 0 0 0.74 0 0 0.76 0 0 
0.78 0 0 0.8 0 0 0.82 0 0 
0.84 0 0 0.86 0 0 0.88 0 0 
0.9 0 0 0.92 0 0 0.94 0 0 
0.96 0 0 0.98 0 0 1 0 0 
0 0.02 0 0.02 0.02 0 0.04 0.02 0 
0.06 0.02 0 0.08 0.02 0 0.1 0.02 0 
0.12 0.02 0 0.14 0.02 0 0.16 0.02 0 
0.18 0.02 0 0.2 0.02 0 0.22 0.02 0 
0.24 0.02 0 0.26 0.02 0 0.28 0.02 0 
0.3 0.02 0 0.32 0.02 0 0.34 0.02 0 
0.36 0.02 0 0.38 0.02 0 0.4 0.02 0 
0.42 0.02 0 0.44 0.02 0 0.46 0.02 0 
0.48 0.02 0 0.5 0.02 0 0.52 0.02 0 
0.54 0.02 0 0.56 0.02 0 0.58 0.02 0 
0.6 0.02 0 0.62 0.02 0 0.64 0.02 0 
0.66 0.02 0 0.68 0.02 0 0.7 0.02 0 
0.72 0.02 0 0.74 0.02 0 0.76 0.02 0 
0.78 0.02 0 0.8 0.02 0 0.82 0.02 0 
0.84 0.02 0 0.86 0.02 0 0.88 0.02 0 
0.9 0.02 0 0.92 0.02 0 0.94 0.02 0 
0.96 0.02 0 0.98 0.02 0 1 0.02 0 
0 0.04 0 0.02 0.04 0 0.04 0.04 0 
0.06 0.04 0 0.08 0.04 0 0.1 0.04 0 
0.12 0.04 0 0.14 0.04 0 0.16 0.04 0 
0.18 0.04 0 0.2 0.04 0 0.22 0.04 0 
0.24 0.04 0 0.26 0.04 0 0.28 0.04 0 
0.3 0.04 0 0.32 0.04 0 0.34 0.04 0 
0.36 0.04 0 0.38 0.04 0 0.4 0.04 0 
0.42 0.04 0 0.44 0.04 0 0.46 0.04 0 
0.48 0.04 0 0.5 0.04 0 0.52 0.04 0 
0.54 0.04 0 0.56 0.04 0 0.58 0.04 0 
0.6 0.04 0 0.62 0.04 0 0.64 0.04 0 
0.66 0.04 0 0.68 0.04 0 0.7 0.04 0 
0.72 0.04 0 0.74 0.04 0 0.76 0.04 0 
0.78 0.04 0 0.8 0.04 0 0.82 0.04 0 
0.84 0.04 0 0.86 0.04 0 0.88 0.04 0 
0.9 0.04 0 0.92 0.04 0 0.94 0.04 0 
0.96 0.04 0 0.98 0.04 0 1 0.04 0 
0 0.06 0 0.02 0.06 0 0.04 0.06 0 
0.06 0.06 0 0.08 0.06 0 0.1 0.06 0 
0.12 0.06 0 0.14 0.06 0 0.16 0.06 0 
0.18 0.06 0 0.2 0.06 0 0.22 0.06 0 
0.24 0.06 0 0.26 0.06 0 0.28 0.06 0 
0.3 0.06 0 0.32 0.06 0 0.34 0.06 0 
0.36 0.06 0 0.38 0.06 0 0.4 0.06 0 
0.42 0.06 0 0.44 0.06 0 0.46 0.06 0 
0.48 0.06 0 0.5 0.06 0 0.52 0.06 0 
0.54 0.06 0 0.56 0.06 0 0.58 0.06 0 
0.6 0.06 0 0.62 0.06 0 0.64 0.06 0 
0.66 0.06 0 0.68 0.06 0 0.7 0.06 0 
0.72 0.06 0 0.74 0.06 0 0.76 0.06 0 
0.78 0.06 0 0.8 0.06 0 0.82 0.06 0 
0.84 0.06 0 0.86 0.06 0 0.88 0.06 0 
0.9 0.06 0 0.92 0.06 0 0.94 0.06 0 
0.96 0.06 0 0.98 0.06 0 1 0.06 0 
0 0.08 0 0.02 0.08 0 0.04 0.08 0 
0.06 0.08 0 0.08 0.08 0 0.1 0.08 0 
0.12 0.08 0 0.14 0.08 0 0.16 0.08 0 
0.18 0.08 0 0.2 0.08 0 0.22 0.08 0 
0.24 0.08 0 0.26 0.08 0 0.28 0.08 0 
0.3 0.08 0 0.32 0.08 0 0.34 0.08 0 
0.36 0.08 0 0.38 0.08 0 0.4 0.08 0 
0.42 0.08 0 0.44 0.08 0 0.46 0.08 0 
0.48 0.08 0 0.5 0.08 0 0.52 0.08 0 
0.54 0.08 0 0.56 0.08 0 0.58 0.08 0 
0.6 0.08 0 0.62 0.08 0 0.64 0.08 0 
0.66 0.08 0 0.68 0.08 0 0.7 0.08 0 
0.72 0.08 0 0.74 0.08 0 0.76 0.08 0 
0.78 0.08 0 0.8 0.08 0 0.82 0.08 0 
0.84 0.08 0 0.86 0.08 0 0.88 0.08 0 
0.9 0.08 0 0.92 0.08 0 0.94 0.08 0 
0.96 0.08 0 0.98 0.08 0 1 0.08 0 
0 0.1 0 0.02 0.1 0 0.04 0.1 0 
0.06 0.1 0 0.08 0.1 0 0.1 0.1 0 
0.12 0.1 0 0.14 0.1 0 0.16 0.1 0 
0.18 0.1 0 0.2 0.1 0 0.22 0.1 0 
0.24 0.1 0 0.26 0.1 0 0.28 0.1 0 
0.3 0.1 0 0.32 0.1 0 0.34 0.1 0 
0.36 0.1 0 0.38 0.1 0 0.4 0.1 0 
0.42 0.1 0 0.44 0.1 0 0.46 0.1 0 
0.48 0.1 0 0.5 0.1 0 0.52 0.1 0 
0.54 0.1 0 0.56 0.1 0 0.58 0.1 0 
0.6 0.1 0 0.62 0.1 0 0.64 0.1 0 
0.66 0.1 0 0.68 0.1 0 0.7 0.1 0 
0.72 0.1 0 0.74 0.1 0 0.76 0.1 0 
0.78 0.1 0 0.8 0.1 0 0.82 0.1 0 
0.84 0.1 0 0.86 0.1 0 0.88 0.1 0 
0.9 0.1 0 0.92 0.1 0 0.94 0.1 0 
0.96 0.1 0 0.98 0.1 0 1 0.1 0 
0 0.12 0 0.02 0.12 0 0.04 0.12 0 
0.06 0.12 0 0.08 0.12 0 0.1 0.12 0 
0.12 0.12 0 0.14 0.12 0 0.16 0.12 0 
0.18 0.12 0 0.2 0.12 0 0.22 0.12 0 
0.24 0.12 0 0.26 0.12 0 0.28 0.12 0 
0.3 0.12 0 0.32 0.12 0 0.34 0.12 0 
0.36 0.12 0 0.38 0.12 0 0.4 0.12 0 
0.42 0.12 0 0.44 0.12 0 0.46 0.12 0 
0.48 0.12 0 0.5 0.12 0 0.52 0.12 0 
0.54 0.12 0 0.56 0.12 0 0.58 0.12 0 
0.6 0.12 0 0.62 0.12 0 0.64 0.12 0 
0.66 0.12 0 0.68 0.12 0 0.7 0.12 0 
0.72 0.12 0 0.74 0.12 0 0.76 0.12 0 
0.78 0.12 0 0.8 0.12 0 0.82 0.12 0 
0.84 0.12 0 0.86 0.12 0 0.88 0.12 0 
0.9 0.12 0 0.92 0.12 0 0.94 0.12 0 
0.96 0.12 0 0.98 0.12 0 1 0.12 0 
0 0.14 0 0.02 0.14 0 0.04 0.14 0 
0.06 0.14 0 0.08 0.14 0 0.1 0.14 0 
0.12 0.14 0 0.14 0.14 0 0.16 0.14 0 
0.18 0.14 0 0.2 0.14 0 0.22 0.14 0 
0.24 0.14 0 0.26 0.14 0 0.28 0.14 0 
0.3 0.14 0 0.32 0.14 0 0.34 0.14 0 
0.36 0.14 0 0.38 0.14 0 0.4 0.14 0 
0.42 0.14 0 0.44 0.14 0 0.46 0.14 0 
0.48 0.14 0 0.5 0.14 0 0.52 0.14 0 
0.54 0.14 0 0.56 0.14 0 0.58 0.14 0 
0.6 0.14 0 0.62 0.14 0 0.64 0.14 0 
0.66 0.14 0 0.68 0.14 0 0.7 0.14 0 
0.72 0.14 0 0.74 0.14 0 0.76 0.14 0 
0.78 0.14 0 0.8 0.14 0 0.82 0.14 0 
0.84 0.14 0 0.86 0.14 0 0.88 0.14 0 
0.9 0.14 0 0.92 0.14 0 0.94 0.14 0 
0.96 0.14 0 0.98 0.14 0 1 0.14 0 
0 0.16 0 0.02 0.16 0 0.04 0.16 0 
0.06 0.16 0 0.08 0.16 0 0.1 0.16 0 
0.12 0.16 0 0.14 0.16 0 0.16 0.16 0 
0.18 0.16 0 0.2 0.16 0 0.22 0.16 0 
0.24 0.16 0 0.26 0.16 0 0.28 0.16 0 
0.3 0.16 0 0.32 0.16 0 0.34 0.16 0 
0.36 0.16 0 0.38 0.16 0 0.4 0.16 0 
0.42 0.16 0 0.44 0.16 0 0.46 0.16 0 
0.48 0.16 0 0.5 0.16 0 0.52 0.16 0 
0.54 0.16 0 0.56 0.16 0 0.58 0.16 0 
0.6 0.16 0 0.62 0.16 0 0.64 0.16 0 
0.66 0.16 0 0.68 0.16 0 0.7 0.16 0 
0.72 0.16 0 0.74 0.16 0 0.76 0.16 0 
0.78 0.16 0 0.8 0.16 0 0.82 0.16 0 
0.84 0.16 0 0.86 0.16 0 0.88 0.16 0 
0.9 0.16 0 0.92 0.16 0 0.94 0.16 0 
0.96 0.16 0 0.98 0.16 0 1 0.16 0 
0 0.18 0 0.02 0.18 0 0.04 0.18 0 
0.06 0.18 0 0.08 0.18 0 0.1 0.18 0 
0.12 0.18 0 0.14 0.18 0 0.16 0.18 0 
0.18 0.18 0 0.2 0.18 0 0.22 0.18 0 
0.24 0.18 0 0.26 0.18 0 0.28 0.18 0 
0.3 0.18 0 0.32 0.18 0 0.34 0.18 0 
0.36 0.18 0 0.38 0.18 0 0.4 0.18 0 
0.42 0.18 0 0.44 0.18 0 0.46 0.18 0 
0.48 0.18 0 0.5 0.18 0 0.52 0.18 0 
0.54 0.18 0 0.56 0.18 0 0.58 0.18 0 
0.6 0.18 0 0.62 0.18 0 0.64 0.18 0 
0.66 0.18 0 0.68 0.18 0 0.7 0.18 0 
0.72 0.18 0 0.74 0.18 0 0.76 0.18 0 
0.78 0.18 0 0.8 0.18 0 0.82 0.18 0 
0.84 0.18 0 0.86 0.18 0 0.88 0.18 0 
0.9 0.18 0 0.92 0.18 0 0.94 0.18 0 
0.96 0.18 0 0.98 0.18 0 1 0.18 0 
0 0.2 0 0.02 0.2 0 0.04 0.2 0 
0.06 0.2 0 0.08 0.2 0 0.1 0.2 0 
0.12 0.2 0 0.14 0.2 0 0.16 0.2 0 
0.18 0.2 0 0.2 0.2 0 0.22 0.2 0 
0.24 0.2 0 0.26 0.2 0 0.28 0.2 0 
0.3 0.2 0 0.32 0.2 0 0.34 0.2 0 
0.36 0.2 0 0.38 0.2 0 0.4 0.2 0 
0.42 0.2 0 0.44 0.2 0 0.46 0.2 0 
0.48 0.2 0 0.5 0.2 0 0.52 0.2 0 
0.54 0.2 0 0.56 0.2 0 0.58 0.2 0 
0.6 0.2 0 0.62 0.2 0 0.64 0.2 0 
0.66 0.2 0 0.68 0.2 0 0.7 0.2 0 
0.72 0.2 0 0.74 0.2 0 0.76 0.2 0 
0.78 0.2 0 0.8 0.2 0 0.82 0.2 0 
0.84 0.2 0 0.86 0.2 0 0.88 0.2 0 
0.9 0.2 0 0.92 0.2 0 0.94 0.2 0 
0.96 0.2 0 0.98 0.2 0 1 0.2 0 
0 0.22 0 0.02 0.22 0 0.04 0.22 0 
0.06 0.22 0 0.08 0.22 0 0.1 0.22 0 
0.12 0.22 0 0.14 0.22 0 0.16 0.22 0 
0.18 0.22 0 0.2 0.22 0 0.22 0.22 0 
0.24 0.22 0 0.26 0.22 0 0.28 0.22 0 
0.3 0.22 0 0.32 0.22 0 0.34 0.22 0 
0.36 0.22 0 0.38 0.22 0 0.4 0.22 0 
0.42 0.22 0 0.44 0.22 0 0.46 0.22 0 
0.48 0.22 0 0.5 0.22 0 0.52 0.22 0 
0.54 0.22 0 0.56 0.22 0 0.58 0.22 0 
0.6 0.22 0 0.62 0.22 0 0.64 0.22 0 
0.66 0.22 0 0.68 0.22 0 0.7 0.22 0 
0.72 0.22 0 0.74 0.22 0 0.76 0.22 0 
0.78 0.22 0 0.8 0.22 0 0.82 0.22 0 
0.84 0.22 0 0.86 0.22 0 0.88 0.22 0 
0.9 0.22 0 0.92 0.22 0 0.94 0.22 0 
0.96 0.22 0 0.98 0.22 0 1 0.22 0 
0 0.24 0 0.02 0.24 0 0.04 0.24 0 
0.06 0.24 0 0.08 0.24 0 0.1 0.24 0 
0.12 0.24 0 0.14 0.24 0 0.16 0.24 0 
0.18 0.24 0 0.2 0.24 0 0.22 0.24 0 
0.24 0.24 0 0.26 0.24 0 0.28 0.24 0 
0.3 0.24 0 0.32 0.24 0 0.34 0.24 0 
0.36 0.24 0 0.38 0.24 0 0.4 0.24 0 
0.42 0.24 0 0.44 0.24 0 0.46 0.24 0 
0.48 0.24 0 0.5 0.24 0 0.52 0.24 0 
0.54 0.24 0 0.56 0.24 0 0.58 0.24 0 
0.6 0.24 0 0.62 0.24 0 0.64 0.24 0 
0.66 0.24 0 0.68 0.24 0 0.7 0.24 0 
0.72 0.24 0 0.74 0.24 0 0.76 0.24 0 
0.78 0.24 0 0.8 0.24 0 0.82 0.24 0 
0.84 0.24 0 0.86 0.24 0 0.88 0.24 0 
0.9 0.24 0 0.92 0.24 0 0.94 0.24 0 
0.96 0.24 0 0.98 0.24 0 1 0.24 0 
0 0.26 0 0.02 0.26 0 0.04 0.26 0 
0.06 0.26 0 0.08 0.26 0 0.1 0.26 0 
0.12 0.26 0 0.14 0.26 0 0.16 0.26 0 
0.18 0.26 0 0.2 0.26 0 0.22 0.26 0 
0.24 0.26 0 0.26 0.26 0 0.28 0.26 0 
0.3 0.26 0 0.32 0.26 0 0.34 0.26 0 
0.36 0.26 0 0.38 0.26 0 0.4 0.26 0 
0.42 0.26 0 0.44 0.26 0 0.46 0.26 0 
0.48 0.26 0 0.5 0.26 0 0.52 0.26 0 
0.54 0.26 0 0.56 0.26 0 0.58 0.26 0 
0.6 0.26 0 0.62 0.26 0 0.64 0.26 0 
0.66 0.26 0 0.68 0.26 0 0.7 0.26 0 
0.72 0.26 0 0.74 0.26 0 0.76 0.26 0 
0.78 0.26 0 0.8 0.26 0 0.82 0.26 0 
0.84 0.26 0 0.86 0.26 0 0.88 0.26 0 
0.9 0.26 0 0.92 0.26 0 0.94 0.26 0 
0.96 0.26 0 0.98 0.26 0 1 0.26 0 
0 0.28 0 0.02 0.28 0 0.04 0.28 0 
0.06 0.28 0 0.08 0.28 0 0.1 0.28 0 
0.12 0.28 0 0.14 0.28 0 0.16 0.28 0 
0.18 0.28 0 0.2 0.28 0 0.22 0.28 0 
0.24 0.28 0 0.26 0.28 0 0.28 0.28 0 
0.3 0.28 0 0.32 0.28 0 0.34 0.28 0 
0.36 0.28 0 0.38 0.28 0 0.4 0.28 0 
0.42 0.28 0 0.44 0.28 0 0.46 0.28 0 
0.48 0.28 0 0.5 0.28 0 0.52 0.28 0 
0.54 0.28 0 0.56 0.28 0 0.58 0.28 0 
0.6 0.28 0 0.62 0.28 0 0.64 0.28 0 
0.66 0.28 0 0.68 0.28 0 0.7 0.28 0 
0.72 0.28 0 0.74 0.28 0 0.76 0.28 0 
0.78 0.28 0 0.8 0.28 0 0.82 0.28 0 
0.84 0.28 0 0.86 0.28 0 0.88 0.28 0 
0.9 0.28 0 0.92 0.28 0 0.94 0.28 0 
0.96 0.28 0 0.98 0.28 0 1 0.28 0 
0 0.3 0 0.02 0.3 0 0.04 0.3 0 
0.06 0.3 0 0.08 0.3 0 0.1 0.3 0 
0.12 0.3 0 0.14 0.3 0 0.16 0.3 0 
0.18 0.3 0 0.2 0.3 0 0.22 0.3 0 
0.24 0.3 0 0.26 0.3 0 0.28 0.3 0 
0.3 0.3 0 0.32 0.3 0 0.34 0.3 0 
0.36 0.3 0 0.38 0.3 0 0.4 0.3 0 
0.42 0.3 0 0.44 0.3 0 0.46 0.3 0 
0.48 0.3 0 0.5 0.3 0 0.52 0.3 0 
0.54 0.3 0 0.56 0.3 0 0.58 0.3 0 
0.6 0.3 0 0.62 0.3 0 0.64 0.3 0 
0.66 0.3 0 0.68 0.3 0 0.7 0.3 0 
0.72 0.3 0 0.74 0.3 0 0.76 0.3 0 
0.78 0.3 0 0.8 0.3 0 0.82 0.3 0 
0.84 0.3 0 0.86 0.3 0 0.88 0.3 0 
0.9 0.3 0 0.92 0.3 0 0.94 0.3 0 
0.96 0.3 0 0.98 0.3 0 1 0.3 0 
0 0.32 0 0.02 0.32 0 0.04 0.32 0 
0.06 0.32 0 0.08 0.32 0 0.1 0.32 0 
0.12 0.32 0 0.14 0.32 0 0.16 0.32 0 
0.18 0.32 0 0.2 0.32 0 0.22 0.32 0 
0.24 0.32 0 0.26 0.32 0 0.28 0.32 0 
0.3 0.32 0 0.32 0.32 0 0.34 0.32 0 
0.36 0.32 0 0.38 0.32 0 0.4 0.32 0 
0.42 0.32 0 0.44 0.32 0 0.46 0.32 0 
0.48 0.32 0 0.5 0.32 0 0.52 0.32 0 
0.54 0.32 0 0.56 0.32 0 0.58 0.32 0 
[...]
CELL_DATA 2500
FIELD FieldData 1
pressure 1 2500 double
0.0061820613016 0.0061145781457 0.0059248285351 0.0056514744572 0.0053342228326 0.0050057609399 0.0046909430894 0.0044078904137 0.0041693759654 
0.0039840664354 0.003857556804 0.0037932122891 0.0037928481884 0.0038572695547 0.0039866729929 0.0041808995594 0.0044395315704 0.0047618437572 
0.0051466394431 0.0055920164816 0.0060951111408 0.0066518606583 0.007256810803 0.0079029785197 0.0085817649111 0.0092829022143 0.0099940564318 
0.010701996733 0.011392787397 0.01205190087 0.012664639261 0.01321665727 0.01369455293 0.014086492546 0.014382834032 0.014576711118 
0.014664541458 0.014646425609 0.014526411458 0.01431261025 0.014017164731 0.013656085442 0.013248984844 0.012818744866 0.012391150229 
0.011994388965 0.011658289191 0.011412392648 0.011280787513 0.011268380095 0.0062498817929 0.0061840309431 0.0060223565133 0.0057943838115 
0.0055295407827 0.0052538157142 0.0049882281092 0.0047487167614 0.0045467611465 0.0043902672491 0.0042844606976 0.0042326712442 0.0042369668509 
0.0042986222354 0.0044184167395 0.0045967698375 0.0048337401441 0.005128926245 0.0054813104535 0.0058890813669 0.0063494611028 0.0068585523397 
0.0074112126111 0.0080009596595 0.0086199140333 0.0092587960429 0.0099060300629 0.010549650724 0.011177100312 0.011775304758 0.012331086472 
0.012831649018 0.013265114096 0.013621083467 0.013891194266 0.014069633963 0.014153581738 0.014143546399 0.014043577864 0.013861338983 
0.013608036013 0.013298217328 0.012949457768 0.012581944937 0.012217964876 0.011881232735 0.011595873248 0.011384847903 0.011267322662 
0.011255962849 0.0064459292792 0.0063484005353 0.0061819556093 0.0059691224286 0.0057320757715 0.0054905019722 0.005260458259 0.0050542328156 
0.0048808272265 0.0047466647408 0.0046562843351 0.0046129187415 0.0046189239278 0.0046760546754 0.0047855994229 0.0049484053504 0.0051648330053 
0.0054346740408 0.005757052812 0.0061303206536 0.0065519448726 0.0070183941682 0.0075250266718 0.0080659929992 0.0086341742041 0.0092211820773 
0.0098159546366 0.010407548566 0.010984437765 0.011534600923 0.012045922986 0.012506656377 0.012905925805 0.01323425294 0.013484071891 
0.013650203359 0.013730255168 0.013724919742 0.013638145437 0.013477167623 0.013252395814 0.012977163402 0.012667353739 0.012340917116 
0.012017284048 0.011716659824 0.011459158083 0.011263809012 0.011147666335 0.01112616595 0.0067308213443 0.0065775208223 0.0063845621742 
0.0061672403971 0.0059406226039 0.0057179903216 0.0055102233592 0.0053258532004 0.0051714364732 0.0050519918965 0.0049713873778 0.0049326450518 
0.0049381552434 0.0049898001471 0.0050890031697 0.0052367307324 0.0054334689846 0.0056791837595 0.0059732607354 0.0063144197896 0.0067006022952 
0.0071288393047 0.0075951169407 0.0080942611017 0.008619865903 0.0091642893581 0.0097168458244 0.010267360018 0.010805033835 0.011318555878 
0.011796488452 0.01222771314 0.012601919167 0.012910111643 0.013145110626 0.013302008271 0.013378550501 0.013375412243 0.013296341501 
0.013148156464 0.012940590736 0.012685993096 0.012398897657 0.012095486015 0.011792964289 0.011508877491 0.011260394104 0.011063651647 
0.010933374233 0.010883209127 0.0070645713009 0.0068442622066 0.006612283226 0.0063769788098 0.0061467988984 0.0059294096093 0.0057313706701 
0.0055581435209 0.0054142073757 0.0053031971449 0.0052280499618 0.0051911497169 0.00519444667 0.0052395364408 0.0053277006496 0.0054599190175 
0.00563685552 0.0058588124928 0.0061256459414 0.0064366420698 0.0067903646345 0.0071844908158 0.0076156566012 0.008079333121 0.0085697525867 
0.0090798985327 0.0095993984577 0.010118610737 0.01062722438 0.011114353789 0.011568913175 0.011980055053 0.012337656271 0.012632827421 
0.012858414915 0.013009460827 0.013083584407 0.013081251591 0.013005905124 0.012863937383 0.012664500258 0.01241915987 0.01214141653 
0.011846120821 0.01154882399 0.011265106529 0.011009937436 0.010797133422 0.010639004698 0.010546207876 0.0074147293391 0.0071235684054 
0.0068449171645 0.0065813980412 0.0063363124806 0.0061131012387 0.0059150199047 0.0057449534885 0.0056053223759 0.0054980870715 0.005424839944 
0.0053869350588 0.0053856027394 0.0054220211152 0.0054973418599 0.0056126737583 0.0057690232281 0.0059671902887 0.0062076241244 0.0064902497068 
0.0068142818354 0.0071780439439 0.0075788070975 0.0080126628474 0.0084744415222 0.0089576860642 0.009452336561 0.0099490655677 0.010437854767 
0.010908003873 0.011348498617 0.011748451538 0.012097597623 0.012386818756 0.012608664105 0.012757828878 0.012831552112 0.012829896337 
0.012755878231 0.012615429733 0.012417183085 0.012172089123 0.011892894082 0.011593514227 0.011288357751 0.010991648548 0.010716805511 
0.010475919311 0.010279330355 0.01013519119 0.007754248152 0.0073910175564 0.0070606282024 0.0067617393044 0.0064940394908 0.006257759208 
0.0060532970275 0.0058809697402 0.0057409241071 0.0056332013803 0.0055578868793 0.0055152597807 0.0055058882378 0.0055306561875 0.0055907300024 
0.0056874740153 0.0058223207664 0.0059966042045 0.0062113682858 0.0064671650094 0.0067638542581 0.0071004146524 0.0074747730935 0.0078836614965 
0.0083225110887 0.0087853961501 0.0092626115183 0.0097449230454 0.010222442598 0.010684450688 0.011119764035 0.011517185426 0.011866016995 
0.012156609558 0.012380913333 0.012532989667 0.012609440793 0.012609716168 0.012536260135 0.01239447695 0.012192504903 0.011940809684 
0.01165162623 0.011338295339 0.011014552926 0.010693833487 0.010388641081 0.010110015906 0.0098670732767 0.009666500854 0.0080588299747 
0.0076235199781 0.0072389343946 0.0069010812487 0.0066067959092 0.0063533838354 0.0061383788993 0.0059594452728 0.0058144440837 0.0057016023324 
0.0056196877588 0.0055681192189 0.0055469918327 0.0055570293556 0.0055994819628 0.0056759809747 0.0057883595646 0.0059384506231 0.0061278733375 
0.0063578171153 0.0066288277018 0.0069405987093 0.0072917741763 0.0076797719611 0.0081006418096 0.0085489736365 0.0090154959245 0.0094908438393 
0.0099651307605 0.010427452792 0.010866257579 0.011269805521 0.011626704777 0.011926492474 0.012160225986 0.012321041076 0.012404629801 
0.012409591647 0.012337617306 0.012193476465 0.011984798232 0.011721653751 0.011415972771 0.011080845776 0.010729776701 0.010375954302 
0.010031598808 0.0097074109866 0.0094121012426 0.009151908258 0.0083065959902 0.0078008306934 0.0073623042757 0.0069847704851 0.0066622735255 
0.006389168101 0.0061601685182 0.0059704768013 0.0058159766937 0.005693421446 0.0056005512615 0.0055361201975 0.0054998478094 0.0054923183732 
0.0055148407983 0.0055692747045 0.0056578292292 0.0057828434377 0.0059465556631 0.0061508655765 0.0063970908994 0.0066857225466 0.0070161870467 
0.007386629917 0.0077937366218 0.008232607766 0.0086945378531 0.0091698187956 0.0096484802399 0.01011931241 0.010570233066 0.010988758694 
0.011362562905 0.011680094923 0.011931220888 0.012107841926 0.012204437447 0.01221848134 0.012150684033 0.012005025513 0.011788562901 
0.011511019449 0.011184187207 0.010821198606 0.010435738161 0.010041269581 0.009650341614 0.0092740062054 0.0089213362972 0.0085989745611 
0.0084786356062 0.007905681466 0.0074152247953 0.0069986320078 0.0066471156791 0.0063522162872 0.0061061337868 0.0059020008503 0.0057340965836 
0.0055979746743 0.0054905009862 0.0054098207366 0.0053552792134 0.0053273070282 0.0053272693045 0.0053572781638 0.0054199739406 0.0055182830274 
0.0056551581798 0.0058333047776 0.0060548968914 0.0063212905764 0.0066327464613 0.0069881769046 0.0073849339783 0.0078186534695 0.0082814033146 
0.0087629476248 0.009253195067 0.0097405516744 0.010212279851 0.010654976082 0.011055152715 0.011399897723 0.011677574546 0.011878513545 
0.011995639065 0.012024973421 0.011965963023 0.011821583432 0.011598199299 0.011305180561 0.010954304814 0.010559002617 0.010133522065 
0.0096920957165 0.0092481825247 0.0088138288543 0.0083991488644 0.0080118742343 0.0085586217278 0.0079225019131 0.0073826170384 0.0069278813404 
0.006546861533 0.006228607112 0.0059631641858 0.005741898366 0.0055576765821 0.0054049409996 0.0052797100453 0.0051795345526 0.0051034190459 
0.0050517030863 0.0050258957681 0.0050284648553 0.0050625893226 0.0051318845183 0.0052401063831 0.005390839667 0.0055871762886 0.0058313930865 
0.0061246411571 0.0064666608164 0.0068555370308 0.0072875098555 0.007755711234 0.0082492315022 0.0087578675414 0.0092696044423 0.0097709579748 
0.010247453264 0.010684227527 0.011066732667 0.011381500389 0.011616919921 0.011763968276 0.011816827554 0.011773325208 0.011635143258 
0.01140776141 0.01110012614 0.010724069642 0.010293533956 0.0098236802434 0.0093299744435 0.0088273335708 0.0083293906697 0.0078478944652 
0.0073922118254 0.0085316109589 0.0078363049642 0.0072494872327 0.0067577908992 0.0063474075373 0.006005148266 0.005719083066 0.0054788994312 
0.0052760812739 0.0051039782536 0.0049578106427 0.0048346281773 0.0047332212057 0.0046539768603 0.0045986799344 0.0045702674866 0.004572549008 
0.0046099009921 0.0046869414944 0.004808189436 0.0049777147145 0.0051987873675 0.0054735360991 0.0058026286749 0.0061849896218 0.0066175746428 
0.0070949577458 0.0076054489243 0.0081387912553 0.0086825582827 0.0092224675714 0.0097428519536 0.010227277091 0.010659284791 0.011023227416 
0.011305143628 0.011493612128 0.011580510698 0.011561605629 0.011436903643 0.01121071614 0.010891413561 0.010490882797 0.010023737458 
0.0095063623556 0.0089558916593 0.0083892192152 0.0078221172719 0.0072685001037 0.0067398220876 0.0083832475943 0.0076326816582 0.0070017045089 
0.0064748510506 0.0060360542235 0.0056699382187 0.0053626019773 0.0051020530687 0.0048784251229 0.0046840649004 0.0045135349255 0.0043635483591 
0.0042328396798 0.0041219754904 0.0040331158116 0.003969738812 0.0039363385509 0.0039381005452 0.0039805578287 0.0040692304442 0.0042092528046 
0.0044049951816 0.0046596878732 0.0049750600374 0.0053510099136 0.0057853282587 0.0062745716601 0.006806141361 0.0073698659487 0.0079529753968 
0.0085403874675 0.0091151621424 0.0096591231893 0.010153635293 0.010580508067 0.010922979534 0.011166713683 0.01130073231 0.0113181938 
0.011216933824 0.010999697648 0.010674021334 0.010251757207 0.0097482823166 0.009181469105 0.0085705257683 0.0079348220948 0.0072928011767 
0.0066610411486 0.0060534846101 0.008099906861 0.0072984058842 0.0066266437001 0.006067069426 0.0056013139284 0.0052117784895 0.0048825939174 
0.0046001503223 0.0043533536285 0.0041337091431 0.0039352890176 0.0037546142238 0.0035904708786 0.0034436778671 0.0033168203778 0.0032139587152 
0.003140315491 0.003101941012 0.0031053567814 0.0031571783598 0.0032637203854 0.0034305883468 0.0036622645283 0.0039616999686 0.0043299297979 
0.00476573456 0.0052681351937 0.0058237321497 0.0064226309164 0.0070518414276 0.007695538361 0.0083354807541 0.0089516186925 0.0095228907611 
0.010028192703 0.010447474679 0.010762901567 0.010959990168 0.011028622496 0.010963829698 0.010766250417 0.010442192659 0.010003268413 
0.0094656207786 0.008848815405 0.0081745105058 0.0074650420998 0.0067420566418 0.006025292866 0.0053315683281 0.0076692261731 0.0068217431651 
0.0061130700275 0.0055234877676 0.0050322941071 0.0046197052819 0.0042679839551 0.0039620455278 0.0036897255007 0.0034418306081 0.0032120519464 
0.0029967906174 0.0027949296731 0.002607574042 0.0024377697016 0.0022902046544 0.0021708893131 0.0020868134415 0.0020455783264 0.0020550041831 
0.0021227139384 0.0022556962432 0.0024598536406 0.0027395462938 0.0030971477022 0.0035326425851 0.0040477127765 0.0046288066262 0.0052664855598 
0.0059477102328 0.0066560391239 0.007371971788 0.0080735096234 0.0087369518428 0.0093379167141 0.0098525527093 0.010258876713 0.010538148766 
0.010676169015 0.01066436806 0.010500562482 0.010189267132 0.0097414962703 0.0091740434368 0.0085082962881 0.0077687043886 0.0069810607497 
0.0061707703726 0.0053612582831 0.0045726234954 0.0070803334638 0.0061922710152 0.0054507384456 0.0048338478018 0.0043186555243 0.0038833308516 
0.0035084205118 0.0031775047607 0.0028774576737 0.0025984600311 0.0023338647822 0.0020799808786 0.0018358156572 0.001602796325 0.0013844772424 
0.0011862316089 0.0010149235387 0.00087855724902 0.00078590103198 0.0007460840006 0.0007681642201 0.00086066858755 0.0010311078384 0.0012854729403 
0.0016277188002 0.0020592320154 0.0025843149836 0.0031906225946 0.0038691733978 0.0046071175467 0.0053876253632 0.006190074588 0.0069905249773 
0.0077624837645 0.0084779589765 0.0091087760282 0.0096281021364 0.010012087472 0.010241496845 0.010303177998 0.010191200073 0.0099075058562 
0.009461958823 0.0088717301245 0.0081600537753 0.0073544653334 0.0064847109757 0.005580551835 0.0046696831181 0.0037759427781 0.0063237246843 
0.0054006777168 0.0046303651851 0.0039888667457 0.0034511695102 0.0029935530533 0.0025949719079 0.0022377564222 0.0019078716226 0.001594904369 
0.0012918955371 0.00099509269483 0.00070366661226 0.00041941192246 0.00014643802758 -0.00010915084724 -0.00033958995865 -0.00053580682561 -0.00068779744293 
-0.00078503147452 -0.00081689130171 -0.00077314746451 -0.00064446935895 -0.00042296658 -0.00010275728868 0.00031941565737 0.00084851047157 0.0014779632443 
0.0021976114404 0.0029953292492 0.0038542939607 0.0047530275578 0.0056657659296 0.006563162904 0.0074133455417 0.0081833159721 0.008840659384 
0.0093554729412 0.0097023816717 0.0098624625033 0.0098248666464 0.0095879246198 0.0091595470014 0.0085568015373 0.0078046484487 0.0069339346317 
0.0059788585632 0.0049741932119 0.0039525735516 0.0029421147678 0.0053911927543 0.004438902939 0.0036440109545 0.0029807594257 0.0024222295621 
0.001942933399 0.0015203185237 0.001135524769 0.00077365364996 0.00042373938459 7.8552503372e-05 -0.00026567954637 -0.00060958626666 -0.00095097849146 
-0.0012851743652 -0.0016053264641 -0.0019027541716 -0.0021672884276 -0.0023876381565 -0.0025517882931 -0.0026474380461 -0.0026624849368 -0.0025855551967 
-0.0024065730388 -0.0021173433805 -0.0017120669964 -0.0011874897718 -0.00053938805695 0.00021913706376 0.00107747011 0.0020193276825 0.0030227736924 
0.0040604709866 0.0051002826997 0.0061062846888 0.007040215993 0.0078633516417 0.0085387274677 0.009033582545 0.0093218189707 0.0093862229521 
0.0092201611327 0.0088284778461 0.0082273838305 0.0074432453778 0.0065103397602 0.0054678064901 0.0043561535274 0.0032137358856 0.0020735942937 
0.0042760380579 0.0033004944725 0.0024854516092 0.0018034944097 0.0012259378214 0.00072564024777 0.00027863798182 -0.00013503717072 -0.00053107624835 
-0.00092093945742 -0.0013120842209 -0.0017082798335 -0.0021099525601 -0.0025145318271 -0.0029167857346 -0.0033091454527 -0.0036820253095 -0.0040241500528 
-0.0043229031643 -0.0045647101985 -0.0047354694602 -0.0048210393528 -0.0048077874979 -0.004683200603 -0.0044365444233 -0.0040595497476 -0.0035470998954 
-0.0028889537405 -0.0020969495169 -0.0011799782229 -0.00015326616405 0.00096130511873 0.0021352293275 0.0033338018756 0.0045170234131 0.0056410411201 
0.0066601457134 0.0075292800459 0.0082069357197 0.0086582240282 0.0088578201967 0.0087924155116 0.0084622946147 0.0078817067566 0.0070778305067 
0.0060883307114 0.0049577377632 0.0037330850475 0.0024593596716 0.0011753150231 0.0029734019938 0.0019808557076 0.0011502631543 0.00045272946616 
-0.00014202807895 -0.00066264753595 -0.0011343654019 -0.0015781457344 -0.0020103919756 -0.0024430130775 -0.0028836822837 -0.0033361827055 -0.0038007761139 
-0.0042745612215 -0.0047518084731 -0.0052242724182 -0.0056814917625 -0.0061110924349 -0.00649911112 -0.0068303565929 -0.0070888248533 -0.0072581819445 
-0.0073223256053 -0.0072660339499 -0.0070757091127 -0.0067402396317 -0.0062520882273 -0.0055946259253 -0.004777704559 -0.0038073246826 -0.0026968823513 
-0.0014675142922 -0.00014830282849 0.0012239046202 0.0026052079856 0.0039460061337 0.0051930505745 0.0062921977574 0.0071917631649 0.0078462643426 
0.0082202145106 0.0082915177379 0.0080539541631 0.0075182652569 0.0067114806397 0.0056743698124 0.0044572164142 0.0031144231797 0.0016986680819 
0.00025537108174 0.001480467573 0.00047727260216 -0.0003642632384 -0.001074278426 -0.0016844159383 -0.0022246005778 -0.0027211771481 -0.0031959949967 
-0.0036661132023 -0.0041438800629 -0.0046372127069 -0.0051499623231 -0.0056822955462 -0.0062310551309 -0.0067900863597 -0.0073505315239 -0.0079011048223 
-0.008428365531 -0.0089170095506 -0.0093501998332 -0.0097099556868 -0.0099776197223 -0.010134419159 -0.010162135284 -0.010043891715 -0.0097650686957 
-0.0093143303872 -0.0086735969664 -0.0078442089462 -0.0068293767592 -0.005639998491 -0.0042956401345 -0.0028251605219 -0.0012668856964 0.00033181013009 
0.001915661849 0.0034235253848 0.0047912977808 0.0059556965299 0.0068587079429 0.0074523455926 0.0077031902103 0.0075960545966 0.0071360844704 
0.0063487176409 0.0052772003909 0.0039777702095 0.0025130639199 0.00094466127364 -0.00067420435082 -0.00020352465981 -0.0012111416251 -0.0020591475062 
-0.0027786047644 -0.003402223551 -0.0039609844891 -0.0044821845884 -0.0049884751583 -0.0054975491145 -0.0060222192012 -0.0065707042945 -0.0071470023844 
-0.0077512753961 -0.0083802056383 -0.0090273089169 -0.0096832066856 -0.010335870571 -0.010970858822 -0.011571567277 -0.012119518798 -0.012594715499 
-0.012976077438 -0.013241989608 -0.013370975467 -0.013342509643 -0.01313797487 -0.012741768644 -0.012135719359 -0.011309405931 -0.010262897561 
-0.0090034901936 -0.0075481034965 -0.0059243314219 -0.0041710424398 -0.0023383573612 -0.00048681036312 0.0013144900344 0.0029908301977 0.0044660161048 
0.0056675164478 0.0065322729028 0.0070125859482 0.0070812682353 0.0067351382813 0.0059959851743 0.0049084251021 0.0035345823784 0.0019461554666 
0.00021498020311 -0.0015965344989 -0.0020773209109 -0.0030834513929 -0.0039336557186 -0.0046595409521 -0.0052945699957 -0.0058705539481 -0.0064156073297 
-0.0069531272113 -0.0075014454673 -0.008073889344 -0.0086790611689 -0.0093212090292 -0.010000607545 -0.010713904241 -0.011454414102 -0.012212363813 
-0.012975099436 -0.013727278602 -0.014451072442 -0.015126404748 -0.015731256878 -0.016242066759 -0.01663424877 -0.016882857598 -0.016963410699 
-0.01685286105 -0.016530633998 -0.015979328593 -0.015175116659 -0.014113742514 -0.012797674472 -0.011239941175 -0.0094656124711 -0.0075128860804 
-0.0054335682409 -0.003292694463 -0.0011670275201 0.00085779435694 0.0026915885733 0.004245393375 0.0054383657138 0.0062051909903 0.0065030548402 
0.0063169808926 0.0056622937907 0.0045832300504 0.0031473232065 0.0014360329105 -0.00046708026517 -0.0024888388969 -0.0041376732308 -0.0051368889167 
-0.0059852936466 -0.0067146268282 -0.0073587796585 -0.0079501727495 -0.0085176168906 -0.0090852183481 -0.0096719782679 -0.010291819233 -0.010953844511 
-0.01166269489 -0.012418915811 -0.013219285591 -0.014057084393 -0.014922304131 -0.015801813195 -0.016679498387 -0.017536411597 -0.018350951758 
-0.019099114151 -0.019754839608 -0.020290495745 -0.020677521019 -0.020887260578 -0.020892023539 -0.020666414012 -0.020189133002 -0.019429519072 
-0.01837411603 -0.017019337977 -0.015373002834 -0.013456234154 -0.011305091167 -0.0089716607518 -0.0065242933845 -0.0040466324678 -0.0016350960497 
0.0006054533962 0.0025679434342 0.0041510350126 0.0052681800409 0.0058567356388 0.00588565816 0.0053600867467 0.0043212957456 0.002841155585 
0.0010113269035 -0.0010713790566 -0.0033211879714 -0.0063793852696 -0.0073669529575 -0.0082099780338 -0.0089398824871 -0.0095906362731 -0.010195041091 
-0.010782493975 -0.011377802881 -0.012000712396 -0.012665874851 -0.013383069235 -0.014157527113 -0.014990272503 -0.015878421778 -0.016815419855 
-0.017791210864 -0.01879235648 -0.019802124836 -0.020800578951 -0.02176469728 -0.022668561124 -0.023483644859 -0.024179245767 -0.024723090684 
-0.025082157583 -0.025223755173 -0.025116930857 -0.024734403254 -0.024045167557 -0.023020224217 -0.021649029585 -0.019932900473 -0.017887500851 
-0.015545075266 -0.012956259266 -0.010191092722 -0.0073387971824 -0.0045058525311 -0.0018119468566 0.00061647894391 0.0026550718932 0.0041923040161 