# vtk DataFile Version 4.1
vtk output
ASCII
DATASET STRUCTURED_GRID
DIMENSIONS 51 51 1
POINTS 2601 float
0 0 0 0.02 0 0 0.04 0 0 
0.06 0 0 0.08 0 0 0.1 0 0 
0.12 0 0 0.14 0 0 0.16 0 0 
0.18 0 0 0.2 0 0 0.22 0 0 
0.24 0 0 0.26 0 0 0.28 0 0 
0.3 0 0 0.32 0 0 0.34 0 0 
0.36 0 0 0.38 0 0 0.4 0 0 
0.42 0 0 0.44 0 0 0.46 0 0 
0.48 0 0 0.5 0 0 0.52 0 0 
0.54 0 0 0.56 0 0 0.58 0 0 
0.6 0 0 0.62 0 0 0.64 0 0 
0.66 0 0 0.68 0 0 0.7 0 0 
0.72 0 0 0.74 0 0 0.76 0 0 
0.78 0 0 0.8 0 0 0.82 0 0 
0.84 0 0 0.86 0 0 0.88 0 0 
0.9 0 0 0.92 0 0 0.94 0 0 
0.96 0 0 0.98 0 0 1 0 0 
0 0.02 0 0.02 0.02 0 0.04 0.02 0 
0.06 0.02 0 0.08 0.02 0 0.1 0.02 0 
0.12 0.02 0 0.14 0.02 0 0.16 0.02 0 
0.18 0.02 0 0.2 0.02 0 0.22 0.02 0 
0.24 0.02 0 0.26 0.02 0 0.28 0.02 0 
0.3 0.02 0 0.32 0.02 0 0.34 0.02 0 
0.36 0.02 0 0.38 0.02 0 0.4 0.02 0 
0.42 0.02 0 0.44 0.02 0 0.46 0.02 0 
0.48 0.02 0 0.5 0.02 0 0.52 0.02 0 
0.54 0.02 0 0.56 0.02 0 0.58 0.02 0 
0.6 0.02 0 0.62 0.02 0 0.64 0.02 0 
0.66 0.02 0 0.68 0.02 0 0.7 0.02 0 
0.72 0.02 0 0.74 0.02 0 0.76 0.02 0 
0.78 0.02 0 0.8 0.02 0 0.82 0.02 0 
0.84 0.02 0 0.86 0.02 0 0.88 0.02 0 
0.9 0.02 0 0.92 0.02 0 0.94 0.02 0 
0.96 0.02 0 0.98 0.02 0 1 0.02 0 
0 0.04 0 0.02 0.04 0 0.04 0.04 0 
0.06 0.04 0 0.08 0.04 0 0.1 0.04 0 
0.12 0.04 0 0.14 0.04 0 0.16 0.04 0 
0.18 0.04 0 0.2 0.04 0 0.22 0.04 0 
0.24 0.04 0 0.26 0.04 0 0.28 0.04 0 
0.3 0.04 0 0.32 0.04 0 0.34 0.04 0 
0.36 0.04 0 0.38 0.04 0 0.4 0.04 0 
0.42 0.04 0 0.44 0.04 0 0.46 0.04 0 
0.48 0.04 0 0.5 0.04 0 0.52 0.04 0 
0.54 0.04 0 0.56 0.04 0 0.58 0.04 0 
0.6 0.04 0 0.62 0.04 0 0.64 0.04 0 
0.66 0.04 0 0.68 0.04 0 0.7 0.04 0 
0.72 0.04 0 0.74 0.04 0 0.76 0.04 0 
0.78 0.04 0 0.8 0.04 0 0.82 0.04 0 
0.84 0.04 0 0.86 0.04 0 0.88 0.04 0 
0.9 0.04 0 0.92 0.04 0 0.94 0.04 0 
0.96 0.04 0 0.98 0.04 0 1 0.04 0 
0 0.06 0 0.02 0.06 0 0.04 0.06 0 
0.06 0.06 0 0.08 0.06 0 0.1 0.06 0 
0.12 0.06 0 0.14 0.06 0 0.16 0.06 0 
0.18 0.06 0 0.2 0.06 0 0.22 0.06 0 
0.24 0.06 0 0.26 0.06 0 0.28 0.06 0 
0.3 0.06 0 0.32 0.06 0 0.34 0.06 0 
0.36 0.06 0 0.38 0.06 0 0.4 0.06 0 
0.42 0.06 0 0.44 0.06 0 0.46 0.06 0 
0.48 0.06 0 0.5 0.06 0 0.52 0.06 0 
0.54 0.06 0 0.56 0.06 0 0.58 0.06 0 
0.6 0.06 0 0.62 0.06 0 0.64 0.06 0 
0.66 0.06 0 0.68 0.06 0 0.7 0.06 0 
0.72 0.06 0 0.74 0.06 0 0.76 0.06 0 
0.78 0.06 0 0.8 0.06 0 0.82 0.06 0 
0.84 0.06 0 0.86 0.06 0 0.88 0.06 0 
0.9 0.06 0 0.92 0.06 0 0.94 0.06 0 
0.96 0.06 0 0.98 0.06 0 1 0.06 0 
0 0.08 0 0.02 0.08 0 0.04 0.08 0 
0.06 0.08 0 0.08 0.08 0 0.1 0.08 0 
0.12 0.08 0 0.14 0.08 0 0.16 0.08 0 
0.18 0.08 0 0.2 0.08 0 0.22 0.08 0 
0.24 0.08 0 0.26 0.08 0 0.28 0.08 0 
0.3 0.08 0 0.32 0.08 0 0.34 0.08 0 
0.36 0.08 0 0.38 0.08 0 0.4 0.08 0 
0.42 0.08 0 0.44 0.08 0 0.46 0.08 0 
0.48 0.08 0 0.5 0.08 0 0.52 0.08 0 
0.54 0.08 0 0.56 0.08 0 0.58 0.08 0 
0.6 0.08 0 0.62 0.08 0 0.64 0.08 0 
0.66 0.08 0 0.68 0.08 0 0.7 0.08 0 
0.72 0.08 0 0.74 0.08 0 0.76 0.08 0 
0.78 0.08 0 0.8 0.08 0 0.82 0.08 0 
0.84 0.08 0 0.86 0.08 0 0.88 0.08 0 
0.9 0.08 0 0.92 0.08 0 0.94 0.08 0 
0.96 0.08 0 0.98 0.08 0 1 0.08 0 
0 0.1 0 0.02 0.1 0 0.04 0.1 0 
0.06 0.1 0 0.08 0.1 0 0.1 0.1 0 
0.12 0.1 0 0.14 0.1 0 0.16 0.1 0 
0.18 0.1 0 0.2 0.1 0 0.22 0.1 0 
0.24 0.1 0 0.26 0.1 0 0.28 0.1 0 
0.3 0.1 0 0.32 0.1 0 0.34 0.1 0 
0.36 0.1 0 0.38 0.1 0 0.4 0.1 0 
0.42 0.1 0 0.44 0.1 0 0.46 0.1 0 
0.48 0.1 0 0.5 0.1 0 0.52 0.1 0 
0.54 0.1 0 0.56 0.1 0 0.58 0.1 0 
0.6 0.1 0 0.62 0.1 0 0.64 0.1 0 
0.66 0.1 0 0.68 0.1 0 0.7 0.1 0 
0.72 0.1 0 0.74 0.1 0 0.76 0.1 0 
0.78 0.1 0 0.8 0.1 0 0.82 0.1 0 
0.84 0.1 0 0.86 0.1 0 0.88 0.1 0 
0.9 0.1 0 0.92 0.1 0 0.94 0.1 0 
0.96 0.1 0 0.98 0.1 0 1 0.1 0 
0 0.12 0 0.02 0.12 0 0.04 0.12 0 
0.06 0.12 0 0.08 0.12 0 0.1 0.12 0 
0.12 0.12 0 0.14 0.12 0 0.16 0.12 0 
0.18 0.12 0 0.2 0.12 0 0.22 0.12 0 
0.24 0.12 0 0.26 0.12 0 0.28 0.12 0 
0.3 0.12 0 0.32 0.12 0 0.34 0.12 0 
0.36 0.12 0 0.38 0.12 0 0.4 0.12 0 
0.42 0.12 0 0.44 0.12 0 0.46 0.12 0 
0.48 0.12 0 0.5 0.12 0 0.52 0.12 0 
0.54 0.12 0 0.56 0.12 0 0.58 0.12 0 
0.6 0.12 0 0.62 0.12 0 0.64 0.12 0 
0.66 0.12 0 0.68 0.12 0 0.7 0.12 0 
0.72 0.12 0 0.74 0.12 0 0.76 0.12 0 
0.78 0.12 0 0.8 0.12 0 0.82 0.12 0 
0.84 0.12 0 0.86 0.12 0 0.88 0.12 0 
0.9 0.12 0 0.92 0.12 0 0.94 0.12 0 
0.96 0.12 0 0.98 0.12 0 1 0.12 0 
0 0.14 0 0.02 0.14 0 0.04 0.14 0 
0.06 0.14 0 0.08 0.14 0 0.1 0.14 0 
0.12 0.14 0 0.14 0.14 0 0.16 0.14 0 
0.18 0.14 0 0.2 0.14 0 0.22 0.14 0 
0.24 0.14 0 0.26 0.14 0 0.28 0.14 0 
0.3 0.14 0 0.32 0.14 0 0.34 0.14 0 
0.36 0.14 0 0.38 0.14 0 0.4 0.14 0 
0.42 0.14 0 0.44 0.14 0 0.46 0.14 0 
0.48 0.14 0 0.5 0.14 0 0.52 0.14 0 
0.54 0.14 0 0.56 0.14 0 0.58 0.14 0 
0.6 0.14 0 0.62 0.14 0 0.64 0.14 0 
0.66 0.14 0 0.68 0.14 0 0.7 0.14 0 
0.72 0.14 0 0.74 0.14 0 0.76 0.14 0 
0.78 0.14 0 0.8 0.14 0 0.82 0.14 0 
0.84 0.14 0 0.86 0.14 0 0.88 0.14 0 
0.9 0.14 0 0.92 0.14 0 0.94 0.14 0 
0.96 0.14 0 0.98 0.14 0 1 0.14 0 
0 0.16 0 0.02 0.16 0 0.04 0.16 0 
0.06 0.16 0 0.08 0.16 0 0.1 0.16 0 
0.12 0.16 0 0.14 0.16 0 0.16 0.16 0 
0.18 0.16 0 0.2 0.16 0 0.22 0.16 0 
0.24 0.16 0 0.26 0.16 0 0.28 0.16 0 
0.3 0.16 0 0.32 0.16 0 0.34 0.16 0 
0.36 0.16 0 0.38 0.16 0 0.4 0.16 0 
0.42 0.16 0 0.44 0.16 0 0.46 0.16 0 
0.48 0.16 0 0.5 0.16 0 0.52 0.16 0 
0.54 0.16 0 0.56 0.16 0 0.58 0.16 0 
0.6 0.16 0 0.62 0.16 0 0.64 0.16 0 
0.66 0.16 0 0.68 0.16 0 0.7 0.16 0 
0.72 0.16 0 0.74 0.16 0 0.76 0.16 0 
0.78 0.16 0 0.8 0.16 0 0.82 0.16 0 
0.84 0.16 0 0.86 0.16 0 0.88 0.16 0 
0.9 0.16 0 0.92 0.16 0 0.94 0.16 0 
0.96 0.16 0 0.98 0.16 0 1 0.16 0 
0 0.18 0 0.02 0.18 0 0.04 0.18 0 
0.06 0.18 0 0.08 0.18 0 0.1 0.18 0 
0.12 0.18 0 0.14 0.18 0 0.16 0.18 0 
0.18 0.18 0 0.2 0.18 0 0.22 0.18 0 
0.24 0.18 0 0.26 0.18 0 0.28 0.18 0 
0.3 0.18 0 0.32 0.18 0 0.34 0.18 0 
0.36 0.18 0 0.38 0.18 0 0.4 0.18 0 
0.42 0.18 0 0.44 0.18 0 0.46 0.18 0 
0.48 0.18 0 0.5 0.18 0 0.52 0.18 0 
0.54 0.18 0 0.56 0.18 0 0.58 0.18 0 
0.6 0.18 0 0.62 0.18 0 0.64 0.18 0 
0.66 0.18 0 0.68 0.18 0 0.7 0.18 0 
0.72 0.18 0 0.74 0.18 0 0.76 0.18 0 
0.78 0.18 0 0.8 0.18 0 0.82 0.18 0 
0.84 0.18 0 0.86 0.18 0 0.88 0.18 0 
0.9 0.18 0 0.92 0.18 0 0.94 0.18 0 
0.96 0.18 0 0.98 0.18 0 1 0.18 0 
0 0.2 0 0.02 0.2 0 0.04 0.2 0 
0.06 0.2 0 0.08 0.2 0 0.1 0.2 0 
0.12 0.2 0 0.14 0.2 0 0.16 0.2 0 
0.18 0.2 0 0.2 0.2 0 0.22 0.2 0 
0.24 0.2 0 0.26 0.2 0 0.28 0.2 0 
0.3 0.2 0 0.32 0.2 0 0.34 0.2 0 
0.36 0.2 0 0.38 0.2 0 0.4 0.2 0 
0.42 0.2 0 0.44 0.2 0 0.46 0.2 0 
0.48 0.2 0 0.5 0.2 0 0.52 0.2 0 
0.54 0.2 0 0.56 0.2 0 0.58 0.2 0 
0.6 0.2 0 0.62 0.2 0 0.64 0.2 0 
0.66 0.2 0 0.68 0.2 0 0.7 0.2 0 
0.72 0.2 0 0.74 0.2 0 0.76 0.2 0 
0.78 0.2 0 0.8 0.2 0 0.82 0.2 0 
0.84 0.2 0 0.86 0.2 0 0.88 0.2 0 
0.9 0.2 0 0.92 0.2 0 0.94 0.2 0 
0.96 0.2 0 0.98 0.2 0 1 0.2 0 
0 0.22 0 0.02 0.22 0 0.04 0.22 0 
0.06 0.22 0 0.08 0.22 0 0.1 0.22 0 
0.12 0.22 0 0.14 0.22 0 0.16 0.22 0 
0.18 0.22 0 0.2 0.22 0 0.22 0.22 0 
0.24 0.22 0 0.26 0.22 0 0.28 0.22 0 
0.3 0.22 0 0.32 0.22 0 0.34 0.22 0 
0.36 0.22 0 0.38 0.22 0 0.4 0.22 0 
0.42 0.22 0 0.44 0.22 0 0.46 0.22 0 
0.48 0.22 0 0.5 0.22 0 0.52 0.22 0 
0.54 0.22 0 0.56 0.22 0 0.58 0.22 0 
0.6 0.22 0 0.62 0.22 0 0.64 0.22 0 
0.66 0.22 0 0.68 0.22 0 0.7 0.22 0 
0.72 0.22 0 0.74 0.22 0 0.76 0.22 0 
0.78 0.22 0 0.8 0.22 0 0.82 0.22 0 
0.84 0.22 0 0.86 0.22 0 0.88 0.22 0 
0.9 0.22 0 0.92 0.22 0 0.94 0.22 0 
0.96 0.22 0 0.98 0.22 0 1 0.22 0 
0 0.24 0 0.02 0.24 0 0.04 0.24 0 
0.06 0.24 0 0.08 0.24 0 0.1 0.24 0 
0.12 0.24 0 0.14 0.24 0 0.16 0.24 0 
0.18 0.24 0 0.2 0.24 0 0.22 0.24 0 
0.24 0.24 0 0.26 0.24 0 0.28 0.24 0 
0.3 0.24 0 0.32 0.24 0 0.34 0.24 0 
0.36 0.24 0 0.38 0.24 0 0.4 0.24 0 
0.42 0.24 0 0.44 0.24 0 0.46 0.24 0 
0.48 0.24 0 0.5 0.24 0 0.52 0.24 0 
0.54 0.24 0 0.56 0.24 0 0.58 0.24 0 
0.6 0.24 0 0.62 0.24 0 0.64 0.24 0 
0.66 0.24 0 0.68 0.24 0 0.7 0.24 0 
0.72 0.24 0 0.74 0.24 0 0.76 0.24 0 
0.78 0.24 0 0.8 0.24 0 0.82 0.24 0 
0.84 0.24 0 0.86 0.24 0 0.88 0.24 0 
0.9 0.24 0 0.92 0.24 0 0.94 0.24 0 
0.96 0.24 0 0.98 0.24 0 1 0.24 0 
0 0.26 0 0.02 0.26 0 0.04 0.26 0 
0.06 0.26 0 0.08 0.26 0 0.1 0.26 0 
0.12 0.26 0 0.14 0.26 0 0.16 0.26 0 
0.18 0.26 0 0.2 0.26 0 0.22 0.26 0 
0.24 0.26 0 0.26 0.26 0 0.28 0.26 0 
0.3 0.26 0 0.32 0.26 0 0.34 0.26 0 
0.36 0.26 0 0.38 0.26 0 0.4 0.26 0 
0.42 0.26 0 0.44 0.26 0 0.46 0.26 0 
0.48 0.26 0 0.5 0.26 0 0.52 0.26 0 
0.54 0.26 0 0.56 0.26 0 0.58 0.26 0 
0.6 0.26 0 0.62 0.26 0 0.64 0.26 0 
0.66 0.26 0 0.68 0.26 0 0.7 0.26 0 
0.72 0.26 0 0.74 0.26 0 0.76 0.26 0 
0.78 0.26 0 0.8 0.26 0 0.82 0.26 0 
0.84 0.26 0 0.86 0.26 0 0.88 0.26 0 
0.9 0.26 0 0.92 0.26 0 0.94 0.26 0 
0.96 0.26 0 0.98 0.26 0 1 0.26 0 
0 0.28 0 0.02 0.28 0 0.04 0.28 0 
0.06 0.28 0 0.08 0.28 0 0.1 0.28 0 
0.12 0.28 0 0.14 0.28 0 0.16 0.28 0 
0.18 0.28 0 0.2 0.28 0 0.22 0.28 0 
0.24 0.28 0 0.26 0.28 0 0.28 0.28 0 
0.3 0.28 0 0.32 0.28 0 0.34 0.28 0 
0.36 0.28 0 0.38 0.28 0 0.4 0.28 0 
0.42 0.28 0 0.44 0.28 0 0.46 0.28 0 
0.48 0.28 0 0.5 0.28 0 0.52 0.28 0 
0.54 0.28 0 0.56 0.28 0 0.58 0.28 0 
0.6 0.28 0 0.62 0.28 0 0.64 0.28 0 
0.66 0.28 0 0.68 0.28 0 0.7 0.28 0 
0.72 0.28 0 0.74 0.28 0 0.76 0.28 0 
0.78 0.28 0 0.8 0.28 0 0.82 0.28 0 
0.84 0.28 0 0.86 0.28 0 0.88 0.28 0 
0.9 0.28 0 0.92 0.28 0 0.94 0.28 0 
0.96 0.28 0 0.98 0.28 0 1 0.28 0 
0 0.3 0 0.02 0.3 0 0.04 0.3 0 
0.06 0.3 0 0.08 0.3 0 0.1 0.3 0 
0.12 0.3 0 0.14 0.3 0 0.16 0.3 0 
0.18 0.3 0 0.2 0.3 0 0.22 0.3 0 
0.24 0.3 0 0.26 0.3 0 0.28 0.3 0 
0.3 0.3 0 0.32 0.3 0 0.34 0.3 0 
0.36 0.3 0 0.38 0.3 0 0.4 0.3 0 
0.42 0.3 0 0.44 0.3 0 0.46 0.3 0 
0.48 0.3 0 0.5 0.3 0 0.52 0.3 0 
0.54 0.3 0 0.56 0.3 0 0.58 0.3 0 
0.6 0.3 0 0.62 0.3 0 0.64 0.3 0 
0.66 0.3 0 0.68 0.3 0 0.7 0.3 0 
0.72 0.3 0 0.74 0.3 0 0.76 0.3 0 
0.78 0.3 0 0.8 0.3 0 0.82 0.3 0 
0.84 0.3 0 0.86 0.3 0 0.88 0.3 0 
0.9 0.3 0 0.92 0.3 0 0.94 0.3 0 
0.96 0.3 0 0.98 0.3 0 1 0.3 0 
0 0.32 0 0.02 0.32 0 0.04 0.32 0 
0.06 0.32 0 0.08 0.32 0 0.1 0.32 0 
0.12 0.32 0 0.14 0.32 0 0.16 0.32 0 
0.18 0.32 0 0.2 0.32 0 0.22 0.32 0 
0.24 0.32 0 0.26 0.32 0 0.28 0.32 0 
0.3 0.32 0 0.32 0.32 0 0.34 0.32 0 
0.36 0.32 0 0.38 0.32 0 0.4 0.32 0 
0.42 0.32 0 0.44 0.32 0 0.46 0.32 0 
0.48 0.32 0 0.5 0.32 0 0.52 0.32 0 
0.54 0.32 0 0.56 0.32 0 0.58 0.32 0 
[...]
CELL_DATA 2500
FIELD FieldData 1
pressure 1 2500 double
-0.0026687848803 -0.0028527679324 -0.0030244590123 -0.0031824548875 -0.0033255378486 -0.0034526833103 -0.003563062818 -0.0036560427545 -0.0037311785186 
-0.0037882052098 -0.0038270250359 -0.0038476921365 -0.0038503956536 -0.003835441628 -0.0038032345264 -0.0037542591364 -0.0036890634419 -0.0036082431127 
-0.0035124281279 -0.0034022719231 -0.0032784433714 -0.0031416217785 -0.0029924949359 -0.0028317601636 -0.0026601281573 -0.0024783293397 -0.0022871223203 
-0.0020873039908 -0.0018797207175 -0.0016652800478 -0.0014449623277 -0.0012198316259 -0.00099104538147 -0.00075986223382 -0.0005276475546 -0.00029587628131 
-6.6132743244e-05 0.00015989272407 0.00038041046915 0.00059354149794 0.00079733059556 0.00098976235312 0.0011687797585 0.0013323049243 0.0014782614578 
0.0016045979301 0.0017093118719 0.0017904737186 0.0018462501469 0.0018749262766 -0.0029638980534 -0.0031594807098 -0.003341337432 -0.0035080186828 
-0.0036582731383 -0.0037910551183 -0.003905526566 -0.0040010544642 -0.0040772041939 -0.0041337288117 -0.0041705553697 -0.0041877686887 -0.0041855933137 
-0.0041643745739 -0.0041245593618 -0.004066677406 -0.0039913237617 -0.0038991430632 -0.0037908160683 -0.0036670489157 -0.0035285653493 -0.003376102073 
-0.0032104072712 -0.0030322421871 -0.002842385538 -0.0026416404449 -0.0024308434475 -0.0022108750976 -0.0019826715658 -0.0017472366542 -0.0015056535875 
-0.0012590959605 -0.0010088372437 -0.00075625829698 -0.00050285240717 -0.00025022744712 -1.0485539726e-07 0.00024568475812 0.00048520945809 0.00071644723939 
0.0009373005336 0.0011456136958 0.0013391931003 0.0015158293855 0.0016733213221 0.0018095007252 0.0019222578086 0.0020095663745 0.0020695082502 
0.0021002964286 -0.0033696589168 -0.0035804759462 -0.0037755313986 -0.0039533136388 -0.0041125295009 -0.0042521099831 -0.0043712112074 -0.0044692102333 
-0.0045456965006 -0.0046004594641 -0.0046334729053 -0.0046448768877 -0.0046349580288 -0.0046041289103 -0.0045529075015 -0.0044818972977 -0.0043917688981 
-0.0042832436626 -0.0041570799315 -0.0040140622119 -0.0038549936041 -0.0036806915854 -0.0034919871457 -0.0032897271442 -0.0030747796157 -0.0028480416521 
-0.0026104493858 -0.00236298952 -0.0021067117887 -0.0018427416965 -0.0015722928673 -0.0012966783444 -0.001017320212 -0.0007357569634 -0.00045364811551 
-0.00017277566026 0.00010495795037 0.00037753546933 0.00064283422965 0.00089863916167 0.0011426592587 0.0013725471787 0.001585921563 0.0017803915595 
0.0019535829684 0.0021031653754 0.0022268796129 0.0023225648899 0.0023881849538 0.0024218526981 -0.0038984690801 -0.0041281948589 -0.0043394642063 
-0.0045306897161 -0.0047005290571 -0.0048478897675 -0.0049719280883 -0.0050720427584 -0.005147864066 -0.0051992388075 -0.0052262120594 -0.0052290064668 
-0.0052080000104 -0.0051637031453 -0.0050967361512 -0.0050078075514 -0.0048976943331 -0.0047672246052 -0.0046172632293 -0.0044487008068 -0.0042624462654 
-0.0040594231485 -0.0038405695557 -0.0036068415435 -0.0033592196651 -0.0030987182097 -0.0028263965954 -0.0025433722962 -0.0022508346173 -0.0019500585992 
-0.0016424183237 -0.0013293989021 -0.0010126064728 -0.00069377559171 -0.00037477348556 -5.7600743179e-05 0.00025561186525 0.00056261061673 0.00086103015121 
0.001148408773 0.0014222074981 0.0016798324791 0.001918660319 0.0021360656908 0.0023294505967 0.0024962745521 0.0026340849515 0.0027405468778 
0.0028134716467 0.002850843437 -0.0045649829127 -0.0048173219588 -0.0050477815928 -0.005254685795 -0.0054366382215 -0.0055925249198 -0.0057215111215 
-0.0058230320585 -0.0058967789144 -0.0059426804494 -0.0059608812101 -0.0059517174146 -0.0059156913796 -0.0058534455598 -0.005765737175 -0.0056534142796 
-0.0055173941051 -0.0053586443563 -0.0051781679831 -0.0049769918268 -0.0047561593665 -0.0045167276187 -0.004259768093 -0.0039863715497 -0.0036976561597 
-0.0033947785442 -0.0030789470649 -0.0027514366503 -0.0024136043839 -0.0020669050489 -0.0017129058155 -0.0013532992793 -0.00098991410852 -0.00062472262892 
-0.00025984477584 0.00010245204168 0.0004597574834 0.00080952739808 0.0011490975371 0.0014757017183 0.0017864941431 0.0020785754226 0.0023490217391 
0.0025949164579 0.0028133834185 0.0030016210773 0.003156936649 0.0032767793999 0.0033587722864 0.0034007412033 -0.0053861993816 -0.0056648719685 
-0.0059174320088 -0.0061421040561 -0.0063374350563 -0.0065022949045 -0.0066358701364 -0.0067376513745 -0.0068074151684 -0.0068452013636 -0.0068512869148 
-0.0068261573084 -0.0067704767894 -0.0066850584584 -0.0065708353683 -0.0064288336122 -0.00626014825 -0.0060659228239 -0.0058473330201 -0.0056055748535 
-0.0053418575803 -0.005057401357 -0.0047534394717 -0.0044312248178 -0.0040920401185 -0.0037372112755 -0.003368123101 -0.0029862366083 -0.0025931069707 
-0.0021904012326 -0.0017799148524 -0.0013635861886 -0.00094350809928 -0.00052193591215 -0.00010129113643 0.00031583957523 0.00072671055233 0.0011284284864 
0.0015179690542 0.0018921985917 0.0022479004497 0.0025818054951 0.0028906260714 0.0031710926081 0.0034199919697 0.0036342065734 0.0038107532766 
0.0039468210492 0.0040398064939 0.0040873463666 -0.0063815604682 -0.0066902824644 -0.006967753296 -0.0072120894985 -0.0074217817686 -0.0075956928501 
-0.0077330475662 -0.0078334157816 -0.0078966893536 -0.0079230541008 -0.0079129581236 -0.00786707776 -0.0077862825122 -0.0076716002715 -0.0075241840447 
-0.0073452813081 -0.0071362069513 -0.0068983205881 -0.0066330088312 -0.0063416729124 -0.0060257218124 -0.0056865708626 -0.0053256455743 -0.0049443902592 
-0.0045442808374 -0.0041268410818 -0.003693661423 -0.0032464193491 -0.0027869003718 -0.0023170185047 -0.0018388352012 -0.0013545757422 -0.00086664213395 
-0.00037762168226 0.00010970946031 0.00059238831611 0.001067273036 0.001531056951 0.0019802886808 0.0024113980485 0.0028207273464 0.0032045673002 
0.0035591969114 0.0038809262061 0.0041661408093 0.0044113471923 0.0046132174101 0.0047686321661 0.0048747211035 0.0049288993301 -0.0075730554587 
-0.0079155121531 -0.0082205643737 -0.0084862144807 -0.0087109011741 -0.0088934937876 -0.0090332778484 -0.0091299326031 -0.0091835017945 -0.0091943591108 
-0.0091631697094 -0.0090908494502 -0.0089785233816 -0.0088274849685 -0.0086391574983 -0.008415058903 -0.0081567710665 -0.0078659144805 -0.0075441288643 
-0.0071930601258 -0.0068143537982 -0.0064096548359 -0.0059806134331 -0.0055288963081 -0.0050562027134 -0.0045642842648 -0.0040549675541 -0.0035301784107 
-0.0029919666143 -0.0024425298372 -0.0018842356047 -0.0013196401142 -0.00075150283934 -0.00018279597085 0.00038329210213 0.00094335987662 0.0014938027855 
0.0020308303803 0.0025504905753 0.0030487006326 0.0035212843298 0.0039640145225 0.0043726601085 0.0047430362313 0.0050710564257 0.0053527853266 
0.0055844905293 0.0057626922146 0.0058842092303 0.0059462004561 -0.0089853300569 -0.0093651444813 -0.0097002618706 -0.00998856766 -0.010228457196 
-0.010418825906 -0.01055904917 -0.010648953222 -0.010688778424 -0.010679136668 -0.010620964685 -0.010515475086 -0.010364107022 -0.010168478187 
-0.0099303397942 -0.0096515359534 -0.0093339686461 -0.008979569224 -0.0085902771002 -0.0081680259926 -0.0077147378011 -0.007232323924 -0.0067226935529 
-0.0061877682482 -0.0056295018869 -0.0050499048959 -0.0044510715404 -0.0038352089312 -0.0032046663534 -0.0025619634933 -0.0019098161612 -0.0012511581713 
-0.00058915814167 7.2769874872e-05 0.00073096283872 0.0013815129409 0.0020202800359 0.0026429124678 0.0032448761816 0.003821491725 0.0043679784582 
0.0048795050194 0.0053512448513 0.0057784353863 0.0061564393311 0.0064808063925 0.006747333746 0.0069521235842 0.0070916361763 0.0071627370392 
-0.010645800783 -0.011066495989 -0.011433921644 -0.011745847251 -0.012000639035 -0.012197244841 -0.012335167196 -0.012414425998 -0.012435512682 
-0.012399337858 -0.012307174615 -0.012160599697 -0.011961434717 -0.011711689482 -0.011413509288 -0.011069127817 -0.010680826986 -0.010250904764 
-0.0097816516537 -0.0092753361869 -0.0087341994519 -0.0081604583448 -0.0075563169454 -0.0069239851453 -0.0062657034193 -0.0055837724386 -0.0048805860648 
-0.0041586661519 -0.0034206975201 -0.0026695614405 -0.0019083660028 -0.001140471811 -0.00036951157516 0.00040059766169 0.0011656507109 0.0019211596369 
0.0026623688756 0.0033842802674 0.0040816878642 0.0047492220258 0.0053814019855 0.0059726957342 0.0065175857863 0.0070106391359 0.0074465795239 
0.0078203600114 0.0081272338118 0.0083628213695 0.0085231717976 0.0086048169888 -0.01258477463 -0.013049730274 -0.013451405331 -0.013787459023 
-0.014056249241 -0.014256810945 -0.014388820822 -0.014452550022 -0.014448807178 -0.01437887423 -0.014244437643 -0.014047517673 -0.013790398262 
-0.013475559985 -0.013105618206 -0.012683268329 -0.012211239628 -0.011692258817 -0.011129024043 -0.010524189657 -0.0098803616782 -0.0092001035186 
-0.0084859511865 -0.0077404368922 -0.0069661197113 -0.0061656217437 -0.0053416680414 -0.0044971284518 -0.0036350594604 -0.0027587440956 -0.0018717279974 
-0.00097784984236 -8.1264457903e-05 0.00081354284012 0.0017017519107 0.0025782143793 0.0034374717509 0.0042737852679 0.0050811773425 0.0058534839827 
0.0065844172279 0.0072676362176 0.0078968251622 0.0084657761796 0.0089684747244 0.0093991851859 0.0097525341695 0.010023589024 0.010207929321 
0.010301709255 -0.014835574831 -0.015347978115 -0.01578547294 -0.016145619584 -0.016426796333 -0.016628169974 -0.016749650121 -0.016791829785 
-0.016755914885 -0.016643645723 -0.016457213621 -0.016199175868 -0.015872372059 -0.015479844683 -0.01502476646 -0.014510376588 -0.013939927592 
-0.013316644005 -0.012643693635 -0.011924171683 -0.011161097556 -0.010357423732 -0.0095160557302 -0.0086398818118 -0.0077318108236 -0.0067948162998 
-0.0058319847864 -0.0048465662113 -0.0038420240553 -0.002822083064 -0.0017907722891 -0.00075246134926 0.00028811203095 0.0013258249212 0.0023551639591 
0.0033702330902 0.0043647749794 0.0053322063637 0.0062656671511 0.0071580825841 0.0080022372994 0.0087908596406 0.0095167141482 0.010172699773 
0.010751951063 0.01124793939 0.011654571177 0.011966280183 0.012178111024 0.012285791476 -0.017434674256 -0.017997465121 -0.018471902627 
-0.01885546617 -0.01914659281 -0.019344637917 -0.019449816897 -0.019463130885 -0.019386279811 -0.019221566515 -0.018971795763 -0.018640172011 
-0.018230199538 -0.017745588337 -0.017190168687 -0.016567816864 -0.015882393904 -0.015137698755 -0.014337436574 -0.013485202387 -0.012584479768 
-0.011638653737 -0.01065103661 -0.0096249051884 -0.0085635473158 -0.0074703155963 -0.0063486858613 -0.0052023178333 -0.004035115364 -0.002851283613 
-0.0016553805888 -0.00045236059195 0.00075239270984 0.0019530455901 0.0031433076483 0.0043164405716 0.0054652831248 0.0065822927108 0.007659603297 
0.00868909892 0.0096625013957 0.010571470287 0.011407712641 0.012163099551 0.012829786204 0.013400331863 0.013867816063 0.014225947437 
0.014469161707 0.014592705841 -0.02042183832 -0.021037649066 -0.021549619555 -0.02195517459 -0.022252859959 -0.02244229095 -0.022524078571 
-0.022499737094 -0.022371577074 -0.022142588419 -0.021816318161 -0.021396747551 -0.020888172867 -0.02029509386 -0.019622113296 -0.018873850387 
-0.018054870262 -0.017169630901 -0.016222448302 -0.015217479964 -0.014158726176 -0.013050048019 -0.011895200525 -0.010697878997 -0.0094617761459 
-0.0081906474172 -0.0068883816771 -0.0055590742687 -0.004207099386 -0.0028371787002 -0.0014544432366 -6.4485633348e-05 0.0013265998748 0.0027121921212 
0.0040851343272 0.0054377436408 0.0067618399357 0.0080487943259 0.0092895971981 0.010474944878 0.011595343332 0.01264122661 0.013603087059 
0.014471613773 0.015237835236 0.015893261828 0.01643002367 0.016840999372 0.017119931466 0.017261524801 -0.023840280258 -0.024511369465 
-0.025060836393 -0.025486087509 -0.025785841328 -0.025960061969 -0.026009866302 -0.025937409244 -0.02574575237 -0.025438721412 -0.025020758369 
-0.024496773815 -0.023872004603 -0.023151881674 -0.022341911941 -0.021447577474 -0.020474254336 -0.019427152635 -0.018311278463 -0.017131417684 
-0.015892140771 -0.014597827306 -0.013252708165 -0.011860922981 -0.01042659009 -0.0089538858352 -0.0074471299358 -0.0059108734212 -0.0043499855962 
-0.0027697364725 -0.0011758711828 0.00042532696443 0.002026987903 0.0036216234968 0.0052011158912 0.006756727417 0.0082791333468 0.0097584781142 
0.011184454851 0.012546407265 0.013833452035 0.015034619024 0.016139005799 0.017135942194 0.018015160051 0.018766962839 0.019382389617 
0.019853367867 0.020172850007 0.020334928958 -0.027736832479 -0.028465013019 -0.02905120871 -0.029492856004 -0.029788927214 -0.029939845502 
-0.029947368543 -0.02981444651 -0.029545060847 -0.029144050705 -0.028616934032 -0.027969730084 -0.027208789598 -0.026340638174 -0.025371837497 
-0.024308868035 -0.023158035846 -0.021925405067 -0.020616756698 -0.01923757338 -0.017793049044 -0.016288121632 -0.014727526424 -0.013115867082 
-0.011457701039 -0.009757635616 -0.0080204309649 -0.0062511058253 -0.0044550419731 -0.002638083258 -0.00080662518557 0.0010323088402 0.002871008258 
0.0047010363794 0.006513214569 0.0082976318789 0.01004368177 0.011740126763 0.013375190975 0.014936679511 0.016412122643 0.017788941658 
0.019054632203 0.02019696005 0.021204163365 0.022065155027 0.0227697182 0.02330868839 0.023674115527 0.023859400354 -0.032162138654 
-0.032948699476 -0.033570009427 -0.034023598002 -0.034308793151 -0.034426613206 -0.034379621494 -0.03417175073 -0.033808105255 -0.033294749634 
-0.032638492208 -0.031846671793 -0.030926955039 -0.029887150967 -0.028735048061 -0.02747827803 -0.026124209078 -0.024679870267 -0.023151907407 
-0.021546569827 -0.019869726483 -0.018126909049 -0.016323378991 -0.014464215084 -0.012554417429 -0.010599023677 -0.0086032329854 -0.0065725330222 
-0.0045128253166 -0.0024305442019 -0.00033276469934 0.00177270517 0.0038772519034 0.0059714077734 0.0080448292542 0.010086305442 0.012083798544 
0.014024517601 0.015895025595 0.017681378893 0.019369296752 0.020944357292 0.022392215047 0.023698834004 0.024850729012 0.025835207634 
0.0266406041 0.027256496935 0.027673902231 0.027885435394 -0.037170872513 -0.038016493582 -0.038670327563 -0.039130078113 -0.039395556068 
-0.039468542658 -0.039352608086 -0.039052894454 -0.038575873142 -0.037929087241 -0.037120889604 -0.0361601865 -0.035056195872 -0.033818227879 
-0.032455493935 -0.030976948826 -0.029391168943 -0.027706268105 -0.025929851125 -0.024069004 -0.022130318592 -0.020119948799 -0.018043694519 
-0.015907109142 -0.013715625911 -0.011474698175 -0.0091899483273 -0.0068673200916 -0.004513228743 -0.0021347038444 0.00026048086018 0.002663695606 
0.0050653657945 0.0074549108247 0.0098207146948 0.012150131852 0.014429530937 0.016644378072 0.018779360104 0.020818546888 0.022745590121 
0.024543954665 0.026197176656 0.027689141145 0.029004370656 0.030128314986 0.03104763191 0.031750448309 0.032226591669 0.032467782882 
-0.042821990803 -0.043726650205 -0.0444092977 -0.044867914396 -0.045102952501 -0.045117162613 -0.044915367438 -0.044504193353 -0.043891772552 
-0.04308742901 -0.042101361325 -0.040944334593 -0.039627392125 -0.038161596027 -0.036557803758 -0.034826485728 -0.032977587041 -0.03102043466 
-0.028963689654 -0.026815342772 -0.024582750451 -0.022272707428 -0.019891551406 -0.017445294686 -0.014939777276 -0.012380835708 -0.0097744815916 
-0.0071270838313 -0.0044455483431 -0.0017374891095 0.00098861554589 0.0037232874638 0.0064559397222 0.0091747997306 0.011866869314 0.014517926079 
0.017112569478 0.019634313842 0.022065729289 0.024388629791 0.026584305835 0.028633797139 0.030518198835 0.032218992499 0.033718391649 
0.034999689838 0.036047598547 0.03684856176 0.037391034541 0.037665714142 -0.049179029583 -0.050141901439 -0.050848368076 -0.051296818771 
-0.051488544168 -0.051427518417 -0.051120116806 -0.05057478346 -0.049801665251 -0.048812228537 -0.047618874902 -0.046234570745 -0.044672503663 
-0.042945776201 -0.041067145039 -0.039048811065 -0.036902263413 -0.034638178278 -0.03226637148 -0.029795802116 -0.027234623432 -0.024590276035 
-0.021869617887 -0.019079085011 -0.016224876481 -0.013313157065 -0.01035027073 -0.0073429581231 -0.0042985711037 -0.0012252773653 0.0018677517955 
0.0049701774274 0.0080703593025 0.011155259155 0.014210386761 0.017219794188 0.020166122599 0.023030704785 0.025793725033 0.028434436035 
0.030931430341 0.033262961412 0.035407306716 0.037343162736 0.039050059343 0.040508779001 0.041701764888 0.042613501452 0.043230851333 
0.043543334012 -0.056310455347 -0.057329796512 -0.058053617055 -0.05848087926 -0.058613957191 -0.058458361827 -0.058022388215 -0.057316703428 
-0.056353895887 -0.055148007012 -0.053714065298 -0.052067640968 -0.050224436695 -0.048199926698 -0.046009053237 -0.043665986237 -0.041183948783 
-0.038575108603 -0.035850533426 -0.033020206388 -0.030093096276 -0.027077276497 -0.023980085956 -0.020808324647 -0.017568476489 -0.014266951836 
-0.010910341996 -0.0075056780581 -0.0040606863048 -0.00058403241729 0.0029144533176 0.0064235776148 0.009930620353 0.013421212855 0.016879265487 
0.020286951181 0.023624750553 0.026871562988 0.030004886348 0.033001065724 0.035835609068 0.038483564453 0.040919950486 0.043120227986 
0.045060797847 0.046719507264 0.048076144468 0.049112901176 0.049814782251 0.050169943771 -0.064290085163 -0.065363107922 -0.066096129896 
-0.066488893929 -0.066545162424 -0.066272370052 -0.065681181913 -0.064784981446 -0.063599314502 -0.062141316127 -0.060429145116 -0.058481448557 
-0.056316874819 -0.053953649213 -0.051409222209 -0.048699995949 -0.045841131117 -0.042846433089 -0.03972831378 -0.03649782369 -0.033164747317 
-0.029737754201 -0.026224597333 -0.022632350442 -0.01896767554 -0.015237112148 -0.011447379677 -0.0076056844283 -0.0037200227166 0.00020052849295 
0.0041455421051 0.0081030013803 0.012059099265 0.015998085423 0.019902169629 0.023751489697 0.027524151289 0.0311963456 0.034742549047 
0.03813580659 0.041348097166 0.044350776015 0.047115084518 0.049612713772 0.051816403847 0.053700556836 0.055241838909 0.056419744964 
0.057217099575 0.057620469873 -0.073197593567 -0.074320320467 -0.075052450518 -0.075394768562 -0.075352805689 -0.074936399387 -0.074159138629 
-0.07303772565 -0.071591288519 -0.069840678332 -0.067807782348 -0.065514880254 -0.062984065467 -0.06023674769 -0.057293247245 -0.054172486497 
-0.050891779162 -0.047466714603 -0.04391113145 -0.040237172827 -0.036455414254 -0.032575054509 -0.028604159493 -0.024549949099 -0.020419117276 
-0.016218175677 -0.01195381149 -0.0076332501993 -0.0032646140038 0.0011427334257 0.0055778654056 0.010028003728 0.01447827328 0.018911510116 
0.023308133356 0.027646091034 0.031900889356 0.036045713548 0.040051646525 0.043887988798 0.047522679377 0.050922812869 0.054055242743 
0.056887255012 0.059387290808 0.061525691018 0.063275431911 0.064612818101 0.065518098852 0.065975975906 -0.083119128388 -0.084286223968 
-0.085005126443 -0.085277992608 -0.085112598287 -0.084521779339 -0.083522732163 -0.082136215574 -0.080385698398 -0.078296496061 -0.075894935483 
-0.073207581439 -0.070260550232 -0.067078928819 -0.063686310087 -0.060104448455 -0.056353034464 -0.052449582783 -0.048409425038 -0.04424579686 
-0.039970007504 -0.035591679967 -0.031119049632 -0.026559309813 -0.021918993117 -0.01720437801 -0.012421910432 -0.007578630546 -0.0026825947785 
0.002256716816 0.0072280181885 0.012217870724 0.01721038384 0.022186974706 0.027126199441 0.032003668291 0.03679205693 0.041461224961 
0.045978450752 0.050308788715 0.054415550885 0.058260909156 0.061806607961 0.065014769699 0.0678487675 0.070274132457 0.072259456328 
0.073777246583 0.074804689549 0.07532427977 -0.094148063558 -0.095352635791 -0.096043369466 -0.096224211192 -0.095905779952 -0.095104653547 
-0.093842482953 -0.092144990291 -0.090040908503 -0.087560918411 -0.084736632518 -0.08159966594 -0.078180824587 -0.074509430317 -0.070612793146 
-0.066515832389 -0.062240842031 -0.057807390909 -0.053232345057 -0.048529997862 -0.043712292982 -0.038789125107 -0.033768704301 -0.028657970546 