# vtk DataFile Version 4.1
vtk output
ASCII
DATASET STRUCTURED_GRID
DIMENSIONS 51 51 1
POINTS 2601 float
0 0 0 0.02 0 0 0.04 0 0 
0.06 0 0 0.08 0 0 0.1 0 0 
0.12 0 0 0.14 0 0 0.16 0 0 
0.18 0 0 0.2 0 0 0.22 0 0 
0.24 0 0 0.26 0 0 0.28 0 0 
0.3 0 0 0.32 0 0 0.34 0 0 
0.36 0 0 0.38 0 0 0.4 0 0 
0.42 0 0 0.44 0 0 0.46 0 0 
0.48 0 0 0.5 0 0 0.52 0 0 
0.54 0 0 0.56 0 0 0.58 0 0 
0.6 0 0 0.62 0 0 0.64 0 0 
0.66 0 0 0.68 0 0 0.7 0 0 
0.72 0 0 0.74 0 0 0.76 0 0 
0.78 0 0 0.8 0 0 0.82 0 0 
0.84 0 0 0.86 0 0 0.88 0 0 
0.9 0 0 0.92 0 0 0.94 0 0 
0.96 0 0 0.98 0 0 1 0 0 
0 0.02 0 0.02 0.02 0 0.04 0.02 0 
0.06 0.02 0 0.08 0.02 0 0.1 0.02 0 
0.12 0.02 0 0.14 0.02 0 0.16 0.02 0 
0.18 0.02 0 0.2 0.02 0 0.22 0.02 0 
0.24 0.02 0 0.26 0.02 0 0.28 0.02 0 
0.3 0.02 0 0.32 0.02 0 0.34 0.02 0 
0.36 0.02 0 0.38 0.02 0 0.4 0.02 0 
0.42 0.02 0 0.44 0.02 0 0.46 0.02 0 
0.48 0.02 0 0.5 0.02 0 0.52 0.02 0 
0.54 0.02 0 0.56 0.02 0 0.58 0.02 0 
0.6 0.02 0 0.62 0.02 0 0.64 0.02 0 
0.66 0.02 0 0.68 0.02 0 0.7 0.02 0 
0.72 0.02 0 0.74 0.02 0 0.76 0.02 0 
0.78 0.02 0 0.8 0.02 0 0.82 0.02 0 
0.84 0.02 0 0.86 0.02 0 0.88 0.02 0 
0.9 0.02 0 0.92 0.02 0 0.94 0.02 0 
0.96 0.02 0 0.98 0.02 0 1 0.02 0 
0 0.04 0 0.02 0.04 0 0.04 0.04 0 
0.06 0.04 0 0.08 0.04 0 0.1 0.04 0 
0.12 0.04 0 0.14 0.04 0 0.16 0.04 0 
0.18 0.04 0 0.2 0.04 0 0.22 0.04 0 
0.24 0.04 0 0.26 0.04 0 0.28 0.04 0 
0.3 0.04 0 0.32 0.04 0 0.34 0.04 0 
0.36 0.04 0 0.38 0.04 0 0.4 0.04 0 
0.42 0.04 0 0.44 0.04 0 0.46 0.04 0 
0.48 0.04 0 0.5 0.04 0 0.52 0.04 0 
0.54 0.04 0 0.56 0.04 0 0.58 0.04 0 
0.6 0.04 0 0.62 0.04 0 0.64 0.04 0 
0.66 0.04 0 0.68 0.04 0 0.7 0.04 0 
0.72 0.04 0 0.74 0.04 0 0.76 0.04 0 
0.78 0.04 0 0.8 0.04 0 0.82 0.04 0 
0.84 0.04 0 0.86 0.04 0 0.88 0.04 0 
0.9 0.04 0 0.92 0.04 0 0.94 0.04 0 
0.96 0.04 0 0.98 0.04 0 1 0.04 0 
0 0.06 0 0.02 0.06 0 0.04 0.06 0 
0.06 0.06 0 0.08 0.06 0 0.1 0.06 0 
0.12 0.06 0 0.14 0.06 0 0.16 0.06 0 
0.18 0.06 0 0.2 0.06 0 0.22 0.06 0 
0.24 0.06 0 0.26 0.06 0 0.28 0.06 0 
0.3 0.06 0 0.32 0.06 0 0.34 0.06 0 
0.36 0.06 0 0.38 0.06 0 0.4 0.06 0 
0.42 0.06 0 0.44 0.06 0 0.46 0.06 0 
0.48 0.06 0 0.5 0.06 0 0.52 0.06 0 
0.54 0.06 0 0.56 0.06 0 0.58 0.06 0 
0.6 0.06 0 0.62 0.06 0 0.64 0.06 0 
0.66 0.06 0 0.68 0.06 0 0.7 0.06 0 
0.72 0.06 0 0.74 0.06 0 0.76 0.06 0 
0.78 0.06 0 0.8 0.06 0 0.82 0.06 0 
0.84 0.06 0 0.86 0.06 0 0.88 0.06 0 
0.9 0.06 0 0.92 0.06 0 0.94 0.06 0 
0.96 0.06 0 0.98 0.06 0 1 0.06 0 
0 0.08 0 0.02 0.08 0 0.04 0.08 0 
0.06 0.08 0 0.08 0.08 0 0.1 0.08 0 
0.12 0.08 0 0.14 0.08 0 0.16 0.08 0 
0.18 0.08 0 0.2 0.08 0 0.22 0.08 0 
0.24 0.08 0 0.26 0.08 0 0.28 0.08 0 
0.3 0.08 0 0.32 0.08 0 0.34 0.08 0 
0.36 0.08 0 0.38 0.08 0 0.4 0.08 0 
0.42 0.08 0 0.44 0.08 0 0.46 0.08 0 
0.48 0.08 0 0.5 0.08 0 0.52 0.08 0 
0.54 0.08 0 0.56 0.08 0 0.58 0.08 0 
0.6 0.08 0 0.62 0.08 0 0.64 0.08 0 
0.66 0.08 0 0.68 0.08 0 0.7 0.08 0 
0.72 0.08 0 0.74 0.08 0 0.76 0.08 0 
0.78 0.08 0 0.8 0.08 0 0.82 0.08 0 
0.84 0.08 0 0.86 0.08 0 0.88 0.08 0 
0.9 0.08 0 0.92 0.08 0 0.94 0.08 0 
0.96 0.08 0 0.98 0.08 0 1 0.08 0 
0 0.1 0 0.02 0.1 0 0.04 0.1 0 
0.06 0.1 0 0.08 0.1 0 0.1 0.1 0 
0.12 0.1 0 0.14 0.1 0 0.16 0.1 0 
0.18 0.1 0 0.2 0.1 0 0.22 0.1 0 
0.24 0.1 0 0.26 0.1 0 0.28 0.1 0 
0.3 0.1 0 0.32 0.1 0 0.34 0.1 0 
0.36 0.1 0 0.38 0.1 0 0.4 0.1 0 
0.42 0.1 0 0.44 0.1 0 0.46 0.1 0 
0.48 0.1 0 0.5 0.1 0 0.52 0.1 0 
0.54 0.1 0 0.56 0.1 0 0.58 0.1 0 
0.6 0.1 0 0.62 0.1 0 0.64 0.1 0 
0.66 0.1 0 0.68 0.1 0 0.7 0.1 0 
0.72 0.1 0 0.74 0.1 0 0.76 0.1 0 
0.78 0.1 0 0.8 0.1 0 0.82 0.1 0 
0.84 0.1 0 0.86 0.1 0 0.88 0.1 0 
0.9 0.1 0 0.92 0.1 0 0.94 0.1 0 
0.96 0.1 0 0.98 0.1 0 1 0.1 0 
0 0.12 0 0.02 0.12 0 0.04 0.12 0 
0.06 0.12 0 0.08 0.12 0 0.1 0.12 0 
0.12 0.12 0 0.14 0.12 0 0.16 0.12 0 
0.18 0.12 0 0.2 0.12 0 0.22 0.12 0 
0.24 0.12 0 0.26 0.12 0 0.28 0.12 0 
0.3 0.12 0 0.32 0.12 0 0.34 0.12 0 
0.36 0.12 0 0.38 0.12 0 0.4 0.12 0 
0.42 0.12 0 0.44 0.12 0 0.46 0.12 0 
0.48 0.12 0 0.5 0.12 0 0.52 0.12 0 
0.54 0.12 0 0.56 0.12 0 0.58 0.12 0 
0.6 0.12 0 0.62 0.12 0 0.64 0.12 0 
0.66 0.12 0 0.68 0.12 0 0.7 0.12 0 
0.72 0.12 0 0.74 0.12 0 0.76 0.12 0 
0.78 0.12 0 0.8 0.12 0 0.82 0.12 0 
0.84 0.12 0 0.86 0.12 0 0.88 0.12 0 
0.9 0.12 0 0.92 0.12 0 0.94 0.12 0 
0.96 0.12 0 0.98 0.12 0 1 0.12 0 
0 0.14 0 0.02 0.14 0 0.04 0.14 0 
0.06 0.14 0 0.08 0.14 0 0.1 0.14 0 
0.12 0.14 0 0.14 0.14 0 0.16 0.14 0 
0.18 0.14 0 0.2 0.14 0 0.22 0.14 0 
0.24 0.14 0 0.26 0.14 0 0.28 0.14 0 
0.3 0.14 0 0.32 0.14 0 0.34 0.14 0 
0.36 0.14 0 0.38 0.14 0 0.4 0.14 0 
0.42 0.14 0 0.44 0.14 0 0.46 0.14 0 
0.48 0.14 0 0.5 0.14 0 0.52 0.14 0 
0.54 0.14 0 0.56 0.14 0 0.58 0.14 0 
0.6 0.14 0 0.62 0.14 0 0.64 0.14 0 
0.66 0.14 0 0.68 0.14 0 0.7 0.14 0 
0.72 0.14 0 0.74 0.14 0 0.76 0.14 0 
0.78 0.14 0 0.8 0.14 0 0.82 0.14 0 
0.84 0.14 0 0.86 0.14 0 0.88 0.14 0 
0.9 0.14 0 0.92 0.14 0 0.94 0.14 0 
0.96 0.14 0 0.98 0.14 0 1 0.14 0 
0 0.16 0 0.02 0.16 0 0.04 0.16 0 
0.06 0.16 0 0.08 0.16 0 0.1 0.16 0 
0.12 0.16 0 0.14 0.16 0 0.16 0.16 0 
0.18 0.16 0 0.2 0.16 0 0.22 0.16 0 
0.24 0.16 0 0.26 0.16 0 0.28 0.16 0 
0.3 0.16 0 0.32 0.16 0 0.34 0.16 0 
0.36 0.16 0 0.38 0.16 0 0.4 0.16 0 
0.42 0.16 0 0.44 0.16 0 0.46 0.16 0 
0.48 0.16 0 0.5 0.16 0 0.52 0.16 0 
0.54 0.16 0 0.56 0.16 0 0.58 0.16 0 
0.6 0.16 0 0.62 0.16 0 0.64 0.16 0 
0.66 0.16 0 0.68 0.16 0 0.7 0.16 0 
0.72 0.16 0 0.74 0.16 0 0.76 0.16 0 
0.78 0.16 0 0.8 0.16 0 0.82 0.16 0 
0.84 0.16 0 0.86 0.16 0 0.88 0.16 0 
0.9 0.16 0 0.92 0.16 0 0.94 0.16 0 
0.96 0.16 0 0.98 0.16 0 1 0.16 0 
0 0.18 0 0.02 0.18 0 0.04 0.18 0 
0.06 0.18 0 0.08 0.18 0 0.1 0.18 0 
0.12 0.18 0 0.14 0.18 0 0.16 0.18 0 
0.18 0.18 0 0.2 0.18 0 0.22 0.18 0 
0.24 0.18 0 0.26 0.18 0 0.28 0.18 0 
0.3 0.18 0 0.32 0.18 0 0.34 0.18 0 
0.36 0.18 0 0.38 0.18 0 0.4 0.18 0 
0.42 0.18 0 0.44 0.18 0 0.46 0.18 0 
0.48 0.18 0 0.5 0.18 0 0.52 0.18 0 
0.54 0.18 0 0.56 0.18 0 0.58 0.18 0 
0.6 0.18 0 0.62 0.18 0 0.64 0.18 0 
0.66 0.18 0 0.68 0.18 0 0.7 0.18 0 
0.72 0.18 0 0.74 0.18 0 0.76 0.18 0 
0.78 0.18 0 0.8 0.18 0 0.82 0.18 0 
0.84 0.18 0 0.86 0.18 0 0.88 0.18 0 
0.9 0.18 0 0.92 0.18 0 0.94 0.18 0 
0.96 0.18 0 0.98 0.18 0 1 0.18 0 
0 0.2 0 0.02 0.2 0 0.04 0.2 0 
0.06 0.2 0 0.08 0.2 0 0.1 0.2 0 
0.12 0.2 0 0.14 0.2 0 0.16 0.2 0 
0.18 0.2 0 0.2 0.2 0 0.22 0.2 0 
0.24 0.2 0 0.26 0.2 0 0.28 0.2 0 
0.3 0.2 0 0.32 0.2 0 0.34 0.2 0 
0.36 0.2 0 0.38 0.2 0 0.4 0.2 0 
0.42 0.2 0 0.44 0.2 0 0.46 0.2 0 
0.48 0.2 0 0.5 0.2 0 0.52 0.2 0 
0.54 0.2 0 0.56 0.2 0 0.58 0.2 0 
0.6 0.2 0 0.62 0.2 0 0.64 0.2 0 
0.66 0.2 0 0.68 0.2 0 0.7 0.2 0 
0.72 0.2 0 0.74 0.2 0 0.76 0.2 0 
0.78 0.2 0 0.8 0.2 0 0.82 0.2 0 
0.84 0.2 0 0.86 0.2 0 0.88 0.2 0 
0.9 0.2 0 0.92 0.2 0 0.94 0.2 0 
0.96 0.2 0 0.98 0.2 0 1 0.2 0 
0 0.22 0 0.02 0.22 0 0.04 0.22 0 
0.06 0.22 0 0.08 0.22 0 0.1 0.22 0 
0.12 0.22 0 0.14 0.22 0 0.16 0.22 0 
0.18 0.22 0 0.2 0.22 0 0.22 0.22 0 
0.24 0.22 0 0.26 0.22 0 0.28 0.22 0 
0.3 0.22 0 0.32 0.22 0 0.34 0.22 0 
0.36 0.22 0 0.38 0.22 0 0.4 0.22 0 
0.42 0.22 0 0.44 0.22 0 0.46 0.22 0 
0.48 0.22 0 0.5 0.22 0 0.52 0.22 0 
0.54 0.22 0 0.56 0.22 0 0.58 0.22 0 
0.6 0.22 0 0.62 0.22 0 0.64 0.22 0 
0.66 0.22 0 0.68 0.22 0 0.7 0.22 0 
0.72 0.22 0 0.74 0.22 0 0.76 0.22 0 
0.78 0.22 0 0.8 0.22 0 0.82 0.22 0 
0.84 0.22 0 0.86 0.22 0 0.88 0.22 0 
0.9 0.22 0 0.92 0.22 0 0.94 0.22 0 
0.96 0.22 0 0.98 0.22 0 1 0.22 0 
0 0.24 0 0.02 0.24 0 0.04 0.24 0 
0.06 0.24 0 0.08 0.24 0 0.1 0.24 0 
0.12 0.24 0 0.14 0.24 0 0.16 0.24 0 
0.18 0.24 0 0.2 0.24 0 0.22 0.24 0 
0.24 0.24 0 0.26 0.24 0 0.28 0.24 0 
0.3 0.24 0 0.32 0.24 0 0.34 0.24 0 
0.36 0.24 0 0.38 0.24 0 0.4 0.24 0 
0.42 0.24 0 0.44 0.24 0 0.46 0.24 0 
0.48 0.24 0 0.5 0.24 0 0.52 0.24 0 
0.54 0.24 0 0.56 0.24 0 0.58 0.24 0 
0.6 0.24 0 0.62 0.24 0 0.64 0.24 0 
0.66 0.24 0 0.68 0.24 0 0.7 0.24 0 
0.72 0.24 0 0.74 0.24 0 0.76 0.24 0 
0.78 0.24 0 0.8 0.24 0 0.82 0.24 0 
0.84 0.24 0 0.86 0.24 0 0.88 0.24 0 
0.9 0.24 0 0.92 0.24 0 0.94 0.24 0 
0.96 0.24 0 0.98 0.24 0 1 0.24 0 
0 0.26 0 0.02 0.26 0 0.04 0.26 0 
0.06 0.26 0 0.08 0.26 0 0.1 0.26 0 
0.12 0.26 0 0.14 0.26 0 0.16 0.26 0 
0.18 0.26 0 0.2 0.26 0 0.22 0.26 0 
0.24 0.26 0 0.26 0.26 0 0.28 0.26 0 
0.3 0.26 0 0.32 0.26 0 0.34 0.26 0 
0.36 0.26 0 0.38 0.26 0 0.4 0.26 0 
0.42 0.26 0 0.44 0.26 0 0.46 0.26 0 
0.48 0.26 0 0.5 0.26 0 0.52 0.26 0 
0.54 0.26 0 0.56 0.26 0 0.58 0.26 0 
0.6 0.26 0 0.62 0.26 0 0.64 0.26 0 
0.66 0.26 0 0.68 0.26 0 0.7 0.26 0 
0.72 0.26 0 0.74 0.26 0 0.76 0.26 0 
0.78 0.26 0 0.8 0.26 0 0.82 0.26 0 
0.84 0.26 0 0.86 0.26 0 0.88 0.26 0 
0.9 0.26 0 0.92 0.26 0 0.94 0.26 0 
0.96 0.26 0 0.98 0.26 0 1 0.26 0 
0 0.28 0 0.02 0.28 0 0.04 0.28 0 
0.06 0.28 0 0.08 0.28 0 0.1 0.28 0 
0.12 0.28 0 0.14 0.28 0 0.16 0.28 0 
0.18 0.28 0 0.2 0.28 0 0.22 0.28 0 
0.24 0.28 0 0.26 0.28 0 0.28 0.28 0 
0.3 0.28 0 0.32 0.28 0 0.34 0.28 0 
0.36 0.28 0 0.38 0.28 0 0.4 0.28 0 
0.42 0.28 0 0.44 0.28 0 0.46 0.28 0 
0.48 0.28 0 0.5 0.28 0 0.52 0.28 0 
0.54 0.28 0 0.56 0.28 0 0.58 0.28 0 
0.6 0.28 0 0.62 0.28 0 0.64 0.28 0 
0.66 0.28 0 0.68 0.28 0 0.7 0.28 0 
0.72 0.28 0 0.74 0.28 0 0.76 0.28 0 
0.78 0.28 0 0.8 0.28 0 0.82 0.28 0 
0.84 0.28 0 0.86 0.28 0 0.88 0.28 0 
0.9 0.28 0 0.92 0.28 0 0.94 0.28 0 
0.96 0.28 0 0.98 0.28 0 1 0.28 0 
0 0.3 0 0.02 0.3 0 0.04 0.3 0 
0.06 0.3 0 0.08 0.3 0 0.1 0.3 0 
0.12 0.3 0 0.14 0.3 0 0.16 0.3 0 
0.18 0.3 0 0.2 0.3 0 0.22 0.3 0 
0.24 0.3 0 0.26 0.3 0 0.28 0.3 0 
0.3 0.3 0 0.32 0.3 0 0.34 0.3 0 
0.36 0.3 0 0.38 0.3 0 0.4 0.3 0 
0.42 0.3 0 0.44 0.3 0 0.46 0.3 0 
0.48 0.3 0 0.5 0.3 0 0.52 0.3 0 
0.54 0.3 0 0.56 0.3 0 0.58 0.3 0 
0.6 0.3 0 0.62 0.3 0 0.64 0.3 0 
0.66 0.3 0 0.68 0.3 0 0.7 0.3 0 
0.72 0.3 0 0.74 0.3 0 0.76 0.3 0 
0.78 0.3 0 0.8 0.3 0 0.82 0.3 0 
0.84 0.3 0 0.86 0.3 0 0.88 0.3 0 
0.9 0.3 0 0.92 0.3 0 0.94 0.3 0 
0.96 0.3 0 0.98 0.3 0 1 0.3 0 
0 0.32 0 0.02 0.32 0 0.04 0.32 0 
0.06 0.32 0 0.08 0.32 0 0.1 0.32 0 
0.12 0.32 0 0.14 0.32 0 0.16 0.32 0 
0.18 0.32 0 0.2 0.32 0 0.22 0.32 0 
0.24 0.32 0 0.26 0.32 0 0.28 0.32 0 
0.3 0.32 0 0.32 0.32 0 0.34 0.32 0 
0.36 0.32 0 0.38 0.32 0 0.4 0.32 0 
0.42 0.32 0 0.44 0.32 0 0.46 0.32 0 
0.48 0.32 0 0.5 0.32 0 0.52 0.32 0 
0.54 0.32 0 0.56 0.32 0 0.58 0.32 0 
[...]
CELL_DATA 2500
FIELD FieldData 1
pressure 1 2500 double
0.0061862159489 0.0061211540376 0.0059294043949 0.0056510581208 0.0053286405077 0.0049970127854 0.0046819137349 0.0044011399162 0.0041663866587 
0.0039850170156 0.0038615281165 0.0037986602548 0.0037981572515 0.0038612140793 0.0039886690477 0.0041810139311 0.0044382981919 0.0047599891609 
0.0051448250288 0.0055906736105 0.0060943948992 0.0066517015685 0.0072570168905 0.0079033375809 0.0085821134967 0.0092831516895 0.0099941849977 
0.010702025366 0.011392754 0.012051842062 0.012664581305 0.013216614147 0.013694528473 0.014086484153 0.01438283632 0.014576718635 
0.014664550165 0.014646433219 0.014526417072 0.014312613794 0.014017166497 0.013656085845 0.01324898435 0.012818743935 0.012391149244 
0.011994388173 0.01165828867 0.011412392347 0.011280787337 0.011268379966 0.0062537952652 0.0061850785589 0.006019704753 0.0057894746344 
0.0055246050818 0.0052507013908 0.0049877947764 0.0047507958833 0.004550462405 0.0043944039614 0.0042879443644 0.0042347906811 0.0042375083321 
0.0042978268098 0.0044168151076 0.0045949676464 0.0048322305866 0.0051279823178 0.0054809711425 0.0058892118008 0.0063498472995 0.0068589901845 
0.0074115639012 0.0080011673425 0.0086199860302 0.0092587750437 0.0099059653484 0.010549580565 0.011177046348 0.011775274012 0.012331076576 
0.012831653352 0.013265125456 0.013621096156 0.01389120485 0.014069641137 0.01415358567 0.014143547932 0.014043577916 0.013861338261 
0.013608034971 0.013298216253 0.012949456862 0.012581944316 0.012217964565 0.011881232671 0.011595873312 0.011384847995 0.011267322732 
0.011255962889 0.0064451438835 0.0063446997602 0.0061782086517 0.0059678667077 0.0057341547455 0.0054951417967 0.005266003575 0.0050589851593 
0.0048836248315 0.0047471101084 0.0046546864216 0.0046100589411 0.0046157485549 0.0046733856535 0.0047839379773 0.0049478688527 0.0051652176312 
0.0054355960209 0.0057581055462 0.006131194951 0.006552485072 0.0070185911466 0.0075249688345 0.0080658042395 0.0086339636354 0.0092210178106 
0.0098158613668 0.010407519733 0.010984452072 0.011534635369 0.012045960036 0.01250668596 0.012905944321 0.013234261127 0.013484072635 
0.013650200001 0.01373025044 0.013724915332 0.013638142089 0.013477165455 0.013252394648 0.012977163003 0.012667353883 0.012340917578 
0.012017284628 0.011716660358 0.011459158478 0.011263809268 0.011147666501 0.011126166076 0.0067268693258 0.0065744516693 0.0063849153795 
0.0061712455795 0.005946641808 0.0057237247166 0.0055138249199 0.0053265016533 0.0051693616276 0.0050481521459 0.0049670318479 0.0049289115147 
0.0049357888477 0.0049890353499 0.0050896110055 0.0052381885775 0.0054351772667 0.0056806518844 0.005974211784 0.006314802786 0.0067005342057 
0.0071285155042 0.0075947276743 0.0080939385531 0.0086196685484 0.0091642151842 0.0097168591359 0.010267417124 0.010805099401 0.011318608966 
0.011796521312 0.012227726819 0.012601919002 0.012910103883 0.013145100467 0.013301999073 0.013378543785 0.013375408192 0.013296339612 
0.013148156039 0.012940591167 0.012685993963 0.012398898655 0.012095486928 0.011792964991 0.011508877936 0.011260394336 0.011063651761 
0.010933374308 0.010883209201 0.0070617554339 0.0068443727208 0.0066153419511 0.0063812986641 0.0061503434852 0.0059307985018 0.0057302879182 
0.0055551781659 0.0054104160407 0.0052996640702 0.0052255794193 0.0051901155877 0.0051947835772 0.0052408456001 0.0053294271539 0.0054615392327 
0.0056380145626 0.0058593782099 0.0061256821619 0.0064363310198 0.0067899175666 0.0071840782523 0.0076153738979 0.0080792009794 0.0085697404204 
0.0090799549079 0.0095994756684 0.01011867745 0.010627267089 0.011114372091 0.01156891338 0.011980045127 0.012337642986 0.012632815241 
0.012858406 0.013009455575 0.013083582151 0.013081251296 0.013005905858 0.012863938489 0.012664501376 0.01241916083 0.012141417243 
0.011846121261 0.011548824183 0.011265106539 0.011009937363 0.01079713335 0.01063900466 0.010546207866 0.0074146351133 0.0071249451141 
0.0068465876459 0.0065821685772 0.0063356702655 0.0061112953652 0.0059127519576 0.0057429618272 0.0056041008068 0.005497801752 0.0054253793528 
0.0053880104808 0.0053868560934 0.0054231250488 0.0054980777016 0.0056129685383 0.0057689372143 0.0059668664457 0.0062072245315 0.0064899036443 
0.0068140593826 0.0071779556531 0.0075788217565 0.0080127320348 0.0084745208039 0.0089577471677 0.0094523693989 0.0099490732497 0.0104378464 
0.010907988835 0.011348483579 0.01174843995 0.012097590459 0.012386815504 0.012608663615 0.012757829908 0.012831553644 0.012829897752 
0.012755879268 0.012615430363 0.0124171834 0.012172089218 0.011892894017 0.011593514062 0.011288357538 0.010991648337 0.01071680535 
0.010475919212 0.010279330301 0.010135191158 0.0077551162193 0.0073910464858 0.0070595528441 0.0067599795453 0.0064923664372 0.0062568734483 
0.0060535039402 0.0058821124178 0.0057425471409 0.0056347939486 0.0055590657207 0.0055158431246 0.0055058850125 0.0055302128603 0.0055900625782 
0.0056867995248 0.0058218014518 0.0059963175015 0.0062113079894 0.0064672672391 0.0067640334446 0.0071005947431 0.0074749056566 0.007883729496 
0.0083225221282 0.0087853709393 0.0092625725477 0.0097448870013 0.010222417866 0.010684438572 0.011119761692 0.01151718877 0.011866022478 
0.012156614847 0.012380917289 0.012532992004 0.012609441732 0.012609716162 0.012536259632 0.012394476284 0.012192504281 0.01194080918 
0.011651625856 0.011338295086 0.011014552768 0.010693833405 0.010388641053 0.010110015903 0.0098670732787 0.0096665008567 0.0080587286285 
0.0076220300555 0.007237034202 0.006899890588 0.0066069812534 0.0063549491142 0.006140765291 0.0059618561618 0.0058161990545 0.005702352757 
0.0056194465471 0.0055671606709 0.0055457066741 0.00555579436 0.005598569282 0.0056755144304 0.0057883180911 0.0059387103859 0.0061282696347 
0.006358202581 0.0066291085069 0.0069407430506 0.0072917991514 0.0076797204466 0.0081005603265 0.0085488976163 0.0090154440057 0.0094908195444 
0.0099651282101 0.010427462715 0.010866271632 0.011269818261 0.01162671373 0.01192649731 0.012160227532 0.012321040523 0.012404628257 
0.012409589918 0.012337615829 0.012193475403 0.011984797582 0.011721653425 0.011415972675 0.011080845825 0.010729776815 0.01037595443 
0.010031598915 0.0097074110574 0.0094121012878 0.0091519082927 0.0083055881513 0.0077994304865 0.0073615756122 0.0069852851269 0.0066639272473 
0.0063913543519 0.006162123718 0.005971620694 0.0058160960545 0.0056926590201 0.0055992684171 0.0055347326731 0.0054987000358 0.0054916151352 
0.0055146300389 0.0055694711042 0.0056582669049 0.0057833403905 0.0059469689612 0.0061511209593 0.0063971825747 0.0066856915912 0.0070160924968 
0.0073865247543 0.0077936547965 0.0082325620689 0.0086945250642 0.0091698276741 0.0096484985271 0.010119330928 0.010570246954 0.010988766683 
0.011362565842 0.011680094487 0.01193121875 0.012107839347 0.012204435195 0.012218479735 0.012150683076 0.01200502507 0.011788562807 
0.011511019562 0.011184187432 0.010821198864 0.010435738391 0.010041269754 0.0096503417226 0.0092740062636 0.0089213363339 0.008598974592 
0.0084779543049 0.0079053786917 0.0074155984834 0.0069995571528 0.0066481911054 0.0063529958671 0.0061063384391 0.00590161114 0.0057333051776 
0.0055970609588 0.0054897130219 0.0054093120412 0.00535509843 0.0053274162768 0.0053275729803 0.0053576562512 0.0054203163531 0.0055185171908 
0.0056552611758 0.005833297037 0.0060548230165 0.0063211977224 0.006632668973 0.0069881306933 0.0073849190463 0.0078186604638 0.0082814203814 
0.0087629652724 0.0092532080536 0.0097405586327 0.010212281825 0.010654974959 0.011055150218 0.011399895043 0.011677572331 0.011878512035 
0.011995638242 0.012024973113 0.011965963019 0.011821583574 0.011598199493 0.011305180766 0.010954305014 0.010559002787 0.010133522185 
0.009692095785 0.0092481825501 0.0088138288589 0.0083991488681 0.0080118742398 0.0085588457794 0.0079228244465 0.0073828286582 0.0069278315789 
0.0065465085421 0.0062280345791 0.0059625512385 0.0057414394695 0.0055574938083 0.0054050416961 0.0052800076392 0.0051799060516 0.0051037581898 
0.0050519456877 0.0050260197274 0.0050284793605 0.0050625234522 0.0051317771754 0.0052399962945 0.005390755948 0.0055871325753 0.00583138753 
0.0061246615183 0.0064666916232 0.0068555654841 0.0072875287407 0.0077557189947 0.0082492305407 0.008757861846 0.00926959767 0.0097709524425 
0.010247449803 0.010684225949 0.011066732371 0.011381500766 0.011616920532 0.011763968862 0.011816827975 0.011773325427 0.011635143318 
0.011407761381 0.011100126087 0.0107240696 0.010293533922 0.0098236802115 0.0093299744113 0.008827333539 0.0083293906463 0.0078478944505 
0.0073922118127 0.0085322151491 0.0078363558861 0.007248934226 0.0067568874 0.0063465112632 0.0060045804633 0.0057190246857 0.0054793425174 
0.0052768518664 0.0051048210384 0.0049584931106 0.0048350149013 0.0047332930995 0.0046538037283 0.0045983733399 0.0045699381719 0.0045722797632 
0.0046097353843 0.0046868849052 0.0048082185879 0.0049777919435 0.0051988751292 0.0054736073813 0.0058026710532 0.0061850034536 0.0066175679946 
0.0070949410089 0.0076054309028 0.0081387773124 0.0086825502847 0.0092224648792 0.0097428527289 0.010227279424 0.01065928731 0.011023229406 
0.011305144883 0.011493612713 0.01158051078 0.011561605406 0.011436903295 0.011210715791 0.010891413285 0.010490882607 0.010023737336 
0.009506362282 0.0089558916168 0.0083892191907 0.007822117259 0.0072685000928 0.0067398220737 0.0083835424187 0.0076322835811 0.007000902763 
0.006474089949 0.0060356840744 0.00567011353 0.0053632614456 0.0051029726795 0.0048793204021 0.0046847000594 0.004513794379 0.0043634487009 
0.0042324920103 0.0041215271507 0.0040326992398 0.0039694412339 0.0039361930825 0.0039380933425 0.0039806447779 0.0040693572234 0.0042093725897 
0.0044050794029 0.0046597282813 0.004975063791 0.0053509915264 0.0057853023203 0.0062745485703 0.0068061261322 0.0073698591557 0.0079529750118 
0.0085403906151 0.009115166317 0.0096591268243 0.01015363775 0.010580509339 0.010922979912 0.011166713501 0.011300731845 0.01131819326 
0.011216933336 0.010999697273 0.010674021087 0.010251757064 0.0097482822455 0.0091814690809 0.0085705257678 0.0079348221021 0.0072928011831 
0.0066610411471 0.0060534846025 0.0080998387587 0.0072980392188 0.0066262751098 0.0060669401705 0.0056015141149 0.0052122509128 0.0048831815715 
0.0046006686158 0.0043536617879 0.0041337536874 0.0039351055843 0.003754295902 0.0035901249858 0.0034433913599 0.0033166426483 0.0032138998607 
0.0031403543724 0.0031020383559 0.003105469681 0.0031572727367 0.0032637782495 0.0034306082819 0.0036622566254 0.0039616785012 0.0043299070509 
0.0047657177781 0.0052681265688 0.0058237304556 0.0064226334757 0.0070518455975 0.0076955422823 0.0083354835258 0.0089516201805 0.0095228912452 
0.010028192578 0.010447474278 0.010762901093 0.010959989728 0.011028622143 0.010963829443 0.010766250254 0.010442192572 0.010003268377 
0.0094656207767 0.0088488154229 0.0081745105283 0.0074650421181 0.0067420566514 0.0060252928657 0.005331568323 0.0076691959226 0.0068217683106 
0.0061131686366 0.0055236274999 0.0050324239521 0.0046197783095 0.0042679727261 0.003961950913 0.0036895761221 0.003441670666 0.0032119225919 
0.0029967153837 0.0027949109687 0.0026075993879 0.002437820952 0.0022902644065 0.0021709435171 0.0020868523252 0.0020455972678 0.0020550043157 
0.0021227013191 0.0022556792053 0.0024598394736 0.0027395389071 0.0030971472232 0.0035326466611 0.0040477184231 0.0046288115699 0.005266488719 
0.0059477115477 0.0066560390992 0.0073719710815 0.0080735087748 0.0087369511601 0.0093379162976 0.0098525525233 0.010258876666 0.01053814878 
0.010676169042 0.010664368075 0.010500562484 0.010189267127 0.0097414962637 0.0091740434369 0.0085082962946 0.0077687043955 0.0069810607536 
0.006170770371 0.0053612582765 0.0045726234874 0.0070805728119 0.0061925487269 0.0054508721747 0.0048337546874 0.0043183640271 0.0038829408134 
0.0035080526204 0.0031772578024 0.0028773817226 0.0025985482406 0.0023340639979 0.0020802164192 0.0018360196045 0.0016029275077 0.0013845265131 
0.0011862142999 0.0010148664712 0.00087848733169 0.00078583865544 0.00074604090285 0.00076814401036 0.00086066850894 0.0010311211872 0.0012854917552 
0.0016277362957 0.0020592441514 0.002584320732 0.0031906231308 0.0038691708692 0.0046071140179 0.0053876222369 0.0061900725054 0.0069905239874 
0.0077624835939 0.0084779592704 0.0091087764851 0.009628102563 0.010012087783 0.010241497023 0.010303178063 0.010191200063 0.0099075058097 
0.0094619587688 0.0088717300811 0.0081600537454 0.0073544653127 0.0064847109605 0.0055805518212 0.0046696831047 0.0037759427653 0.0063240776528 
0.0054008762097 0.0046302708465 0.003988516437 0.0034507061706 0.002993143579 0.0025947426236 0.0022377589074 0.0019080790175 0.0015952324091 
0.0012922385844 0.00099536104178 0.00070381140235 0.00041943061858 0.00014636277819 -0.00010927289016 -0.00033971464826 -0.00053590386572 -0.00068785345926 
-0.00078504754654 -0.00081687782239 -0.00077311851159 -0.00064443795899 -0.00042294170478 -0.00010274283459 0.00031942016298 0.00084850807905 0.0014779576395 
0.0021976055934 0.0029953248468 0.0038542914961 0.0047530267533 0.0056657661856 0.0065631636348 0.007413346338 0.008183316617 0.0088406598083 
0.0093554731613 0.0097023817331 0.0098624624598 0.0098248665507 0.0095879245107 0.0091595469052 0.0085568014654 0.0078046483986 0.0069339345971 
0.0059788585386 0.004974193192 0.003952573534 0.002942114751 0.005391408022 0.004438916957 0.0036438221272 0.002980473262 0.0024219746473 
0.0019428064258 0.001520357711 0.0011357086548 0.00077391780384 0.00042400334497 7.8748045905e-05 -0.00026558858008 -0.00060959886069 -0.00095106530321 
-0.0012852939165 -0.00160544061 -0.001902837651 -0.0021673315527 -0.0023876443773 -0.0025517691303 -0.002647407566 -0.0026624552422 -0.0025855338043 
-0.0024065623701 -0.0021173418918 -0.0017120711275 -0.0011874958468 -0.00053939346295 0.00021913354612 0.0010774685701 0.0020193275901 0.003022774361 
0.0040604718561 0.0051002834462 0.0061062851972 0.0070402162713 0.0078633517482 0.0085387274625 0.0090335824707 0.0093218188609 0.0093862228341 
0.0092201610244 0.0088284777593 0.0082273837667 0.0074432453318 0.0065103397266 0.0054678064645 0.0043561535055 0.0032137358655 0.0020735942736 
0.0042760726695 0.0033004718681 0.0024854049831 0.0018034621252 0.0012259415831 0.00072568265452 0.00027870780065 -0.00013495878935 -0.00053101005825 
-0.00092090203793 -0.0013120826183 -0.0017083097639 -0.002110001324 -0.0025145840428 -0.0029168287149 -0.0033091720839 -0.0036820343244 -0.004024144742 
-0.0043228894234 -0.0045646944291 -0.0047354567326 -0.0048210322592 -0.0048077860327 -0.0046832029688 -0.004436548233 -0.0040595530759 -0.0035471018002 
-0.0028889541861 -0.0020969489855 -0.0011799773115 -0.00015326532026 0.00096130567685 0.0021352295746 0.0033338019004 0.0045170233302 0.0056410410135 
0.006660145624 0.0075292799776 0.0082069356596 0.0086582239686 0.008857820137 0.0087924154547 0.0084622945653 0.0078817067154 0.0070778304719 
0.0060883306821 0.004957737738 0.0037330850243 0.0024593596493 0.0011753150001 0.0029733937175 0.0019809356377 0.001150388917 0.00045283720892 
-0.000141986061 -0.00066268573767 -0.0011344657538 -0.0015782718839 -0.0020105067609 -0.0024430907361 -0.002883712994 -0.0033361712051 -0.0038007368164 
-0.0042745118636 -0.0047517642333 -0.005224242256 -0.005681477856 -0.0061110920908 -0.0064991194979 -0.0068303688251 -0.0070888370809 -0.00725819158 
-0.0073223313345 -0.0072660356499 -0.0070757076204 -0.0067402363432 -0.0062520845862 -0.0055946229797 -0.0047777027753 -0.0038073240242 -0.0026968824897 
-0.0014675148311 -0.00014830344555 0.0012239041221 0.0026052076782 0.0039460060013 0.0051930505601 0.0062921977963 0.0071917632088 0.007846264369 
0.0082202145143 0.0082915177236 0.0080539541386 0.0075182652276 0.0067114806092 0.0056743697837 0.0044572163879 0.0031144231549 0.0016986680576 
0.00025537105675 0.0014805193255 0.00047742574763 -0.00036411497869 -0.0010742248919 -0.0016844888444 -0.002224773722 -0.0027213891722 -0.0031961799799 
-0.0036662247567 -0.0041439020785 -0.0046371575492 -0.0051498609136 -0.0056821842402 -0.0062309638831 -0.0067900315826 -0.0073505150285 -0.0079011177733 
-0.0084283945528 -0.0089170420477 -0.0093502269918 -0.0097099731806 -0.009977627007 -0.010134418233 -0.010162129372 -0.010043884114 -0.0097650619432 
-0.0093143258506 -0.0086735948759 -0.0078442087682 -0.0068293776681 -0.0056399997398 -0.0042956412401 -0.0028251612737 -0.0012668860783 0.00033181003028 
0.0019156619157 0.0034235255187 0.0047912979135 0.0059556966272 0.0068587079977 0.0074523456102 0.0077031902019 0.0075960545734 0.0071360844401 
0.0063487176091 0.0052772003612 0.0039777701824 0.0025130638945 0.00094466124849 -0.00067420437678 -0.00020344412502 -0.0012110272368 -0.0020590871144 
-0.0027786437251 -0.0034023516189 -0.003961153511 -0.0044823364367 -0.0049885658135 -0.0054975609244 -0.0060221609865 -0.0065706032704 -0.007146892462 
-0.0077511858279 -0.0083801533153 -0.0090272962208 -0.0096832245979 -0.010335904712 -0.01097089536 -0.011571596602 -0.01211953655 -0.012594721709 
-0.012976074902 -0.013241982239 -0.013370966961 -0.013342502625 -0.013137970576 -0.012741767071 -0.012135719731 -0.011309407253 -0.010262899019 
-0.0090034913225 -0.0075481041605 -0.0059243316848 -0.00417104244 -0.0023383572336 -0.00048681020185 0.001314490177 0.002990830299 0.0044660161626 
0.0056675164697 0.0065322728982 0.0070125859272 0.0070812682059 0.006735138249 0.0059959851428 0.0049084250737 0.0035345823525 0.0019461554419 
0.00021498017825 -0.0015965345247 -0.0020772900215 -0.0030834193348 -0.0039336521762 -0.0046595731871 -0.0052946240255 -0.005870606877 -0.0064156396683 
-0.0069531295463 -0.0075014192276 -0.0080738441554 -0.0086790108481 -0.0093211670841 -0.010000583086 -0.010713899691 -0.011454425602 -0.012212383895 
-0.012975120397 -0.013727294966 -0.014451081819 -0.015126407386 -0.015731254628 -0.016242062041 -0.016634243787 -0.016882853835 -0.016963408754 
-0.016852860755 -0.016530634735 -0.015979329668 -0.015175117573 -0.014113743054 -0.012797674659 -0.01123994114 -0.0094656123496 -0.0075128859604 
-0.0054335681582 -0.0032926944184 -0.0011670275022 0.00085779435813 0.0026915885646 0.0042453933593 0.005438365692 0.0062051909642 0.0065030548118 
0.0063169808637 0.0056622937633 0.0045832300252 0.0031473231826 0.001436032887 -0.00046708028927 -0.0024888389221 -0.0041377071378 -0.0051368903824 
-0.005985264352 -0.0067145811464 -0.0073587343868 -0.0079501420764 -0.0085176084449 -0.0090852312131 -0.0096720044629 -0.01029184818 -0.010953867801 
-0.0116627087 -0.012418920473 -0.013219283673 -0.0140570789 -0.01492229757 -0.015801807319 -0.016679494199 -0.017536409421 -0.018350951382 
-0.01909911506 -0.019754841232 -0.020290497601 -0.020677522739 -0.020887261899 -0.02089202431 -0.020666414213 -0.020189132746 -0.019429518568 
-0.018374115495 -0.017019337572 -0.015373002627 -0.013456234127 -0.011305091254 -0.0089716608826 -0.0065242935071 -0.0040466325586 -0.0016350961074 
0.00060545336255 0.0025679434127 0.004151034994 0.0052681800212 0.0058567356166 0.0058856581364 0.005360086723 0.0043212957224 0.0028411555621 
0.0010113268805 -0.0010713790802 -0.0033211879961 -0.0063794352151 -0.0073669338608 -0.0082099041192 -0.0089397923231 -0.0095905684881 -0.010195020664 
-0.01078252541 -0.011377871743 -0.01200079382 -0.012665944548 -0.013383111808 -0.014157538845 -0.014990259187 -0.015878394121 -0.016815388929 
-0.017791185037 -0.018792340136 -0.01980211857 -0.020800580697 -0.021764703764 -0.022668569128 -0.023483652017 -0.024179250807 -0.024723093295 
-0.025082158117 -0.025223754315 -0.02511692935 -0.024734401714 -0.024045166375 -0.02302022354 -0.021649029375 -0.019932900589 -0.017887501125 
-0.015545075566 -0.012956259513 -0.010191092889 -0.0073387972772 -0.0045058525757 -0.0018119468743 0.00061647893531 0.0026550718836 0.0041923040018 