# vtk DataFile Version 4.1
vtk output
ASCII
DATASET STRUCTURED_GRID
DIMENSIONS 51 51 1
POINTS 2601 float
0 0 0 0.02 0 0 0.04 0 0 
0.06 0 0 0.08 0 0 0.1 0 0 
0.12 0 0 0.14 0 0 0.16 0 0 
0.18 0 0 0.2 0 0 0.22 0 0 
0.24 0 0 0.26 0 0 0.28 0 0 
0.3 0 0 0.32 0 0 0.34 0 0 
0.36 0 0 0.38 0 0 0.4 0 0 
0.42 0 0 0.44 0 0 0.46 0 0 
0.48 0 0 0.5 0 0 0.52 0 0 
0.54 0 0 0.56 0 0 0.58 0 0 
0.6 0 0 0.62 0 0 0.64 0 0 
0.66 0 0 0.68 0 0 0.7 0 0 
0.72 0 0 0.74 0 0 0.76 0 0 
0.78 0 0 0.8 0 0 0.82 0 0 
0.84 0 0 0.86 0 0 0.88 0 0 
0.9 0 0 0.92 0 0 0.94 0 0 
0.96 0 0 0.98 0 0 1 0 0 
0 0.02 0 0.02 0.02 0 0.04 0.02 0 
0.06 0.02 0 0.08 0.02 0 0.1 0.02 0 
0.12 0.02 0 0.14 0.02 0 0.16 0.02 0 
0.18 0.02 0 0.2 0.02 0 0.22 0.02 0 
0.24 0.02 0 0.26 0.02 0 0.28 0.02 0 
0.3 0.02 0 0.32 0.02 0 0.34 0.02 0 
0.36 0.02 0 0.38 0.02 0 0.4 0.02 0 
0.42 0.02 0 0.44 0.02 0 0.46 0.02 0 
0.48 0.02 0 0.5 0.02 0 0.52 0.02 0 
0.54 0.02 0 0.56 0.02 0 0.58 0.02 0 
0.6 0.02 0 0.62 0.02 0 0.64 0.02 0 
0.66 0.02 0 0.68 0.02 0 0.7 0.02 0 
0.72 0.02 0 0.74 0.02 0 0.76 0.02 0 
0.78 0.02 0 0.8 0.02 0 0.82 0.02 0 
0.84 0.02 0 0.86 0.02 0 0.88 0.02 0 
0.9 0.02 0 0.92 0.02 0 0.94 0.02 0 
0.96 0.02 0 0.98 0.02 0 1 0.02 0 
0 0.04 0 0.02 0.04 0 0.04 0.04 0 
0.06 0.04 0 0.08 0.04 0 0.1 0.04 0 
0.12 0.04 0 0.14 0.04 0 0.16 0.04 0 
0.18 0.04 0 0.2 0.04 0 0.22 0.04 0 
0.24 0.04 0 0.26 0.04 0 0.28 0.04 0 
0.3 0.04 0 0.32 0.04 0 0.34 0.04 0 
0.36 0.04 0 0.38 0.04 0 0.4 0.04 0 
0.42 0.04 0 0.44 0.04 0 0.46 0.04 0 
0.48 0.04 0 0.5 0.04 0 0.52 0.04 0 
0.54 0.04 0 0.56 0.04 0 0.58 0.04 0 
0.6 0.04 0 0.62 0.04 0 0.64 0.04 0 
0.66 0.04 0 0.68 0.04 0 0.7 0.04 0 
0.72 0.04 0 0.74 0.04 0 0.76 0.04 0 
0.78 0.04 0 0.8 0.04 0 0.82 0.04 0 
0.84 0.04 0 0.86 0.04 0 0.88 0.04 0 
0.9 0.04 0 0.92 0.04 0 0.94 0.04 0 
0.96 0.04 0 0.98 0.04 0 1 0.04 0 
0 0.06 0 0.02 0.06 0 0.04 0.06 0 
0.06 0.06 0 0.08 0.06 0 0.1 0.06 0 
0.12 0.06 0 0.14 0.06 0 0.16 0.06 0 
0.18 0.06 0 0.2 0.06 0 0.22 0.06 0 
0.24 0.06 0 0.26 0.06 0 0.28 0.06 0 
0.3 0.06 0 0.32 0.06 0 0.34 0.06 0 
0.36 0.06 0 0.38 0.06 0 0.4 0.06 0 
0.42 0.06 0 0.44 0.06 0 0.46 0.06 0 
0.48 0.06 0 0.5 0.06 0 0.52 0.06 0 
0.54 0.06 0 0.56 0.06 0 0.58 0.06 0 
0.6 0.06 0 0.62 0.06 0 0.64 0.06 0 
0.66 0.06 0 0.68 0.06 0 0.7 0.06 0 
0.72 0.06 0 0.74 0.06 0 0.76 0.06 0 
0.78 0.06 0 0.8 0.06 0 0.82 0.06 0 
0.84 0.06 0 0.86 0.06 0 0.88 0.06 0 
0.9 0.06 0 0.92 0.06 0 0.94 0.06 0 
0.96 0.06 0 0.98 0.06 0 1 0.06 0 
0 0.08 0 0.02 0.08 0 0.04 0.08 0 
0.06 0.08 0 0.08 0.08 0 0.1 0.08 0 
0.12 0.08 0 0.14 0.08 0 0.16 0.08 0 
0.18 0.08 0 0.2 0.08 0 0.22 0.08 0 
0.24 0.08 0 0.26 0.08 0 0.28 0.08 0 
0.3 0.08 0 0.32 0.08 0 0.34 0.08 0 
0.36 0.08 0 0.38 0.08 0 0.4 0.08 0 
0.42 0.08 0 0.44 0.08 0 0.46 0.08 0 
0.48 0.08 0 0.5 0.08 0 0.52 0.08 0 
0.54 0.08 0 0.56 0.08 0 0.58 0.08 0 
0.6 0.08 0 0.62 0.08 0 0.64 0.08 0 
0.66 0.08 0 0.68 0.08 0 0.7 0.08 0 
0.72 0.08 0 0.74 0.08 0 0.76 0.08 0 
0.78 0.08 0 0.8 0.08 0 0.82 0.08 0 
0.84 0.08 0 0.86 0.08 0 0.88 0.08 0 
0.9 0.08 0 0.92 0.08 0 0.94 0.08 0 
0.96 0.08 0 0.98 0.08 0 1 0.08 0 
0 0.1 0 0.02 0.1 0 0.04 0.1 0 
0.06 0.1 0 0.08 0.1 0 0.1 0.1 0 
0.12 0.1 0 0.14 0.1 0 0.16 0.1 0 
0.18 0.1 0 0.2 0.1 0 0.22 0.1 0 
0.24 0.1 0 0.26 0.1 0 0.28 0.1 0 
0.3 0.1 0 0.32 0.1 0 0.34 0.1 0 
0.36 0.1 0 0.38 0.1 0 0.4 0.1 0 
0.42 0.1 0 0.44 0.1 0 0.46 0.1 0 
0.48 0.1 0 0.5 0.1 0 0.52 0.1 0 
0.54 0.1 0 0.56 0.1 0 0.58 0.1 0 
0.6 0.1 0 0.62 0.1 0 0.64 0.1 0 
0.66 0.1 0 0.68 0.1 0 0.7 0.1 0 
0.72 0.1 0 0.74 0.1 0 0.76 0.1 0 
0.78 0.1 0 0.8 0.1 0 0.82 0.1 0 
0.84 0.1 0 0.86 0.1 0 0.88 0.1 0 
0.9 0.1 0 0.92 0.1 0 0.94 0.1 0 
0.96 0.1 0 0.98 0.1 0 1 0.1 0 
0 0.12 0 0.02 0.12 0 0.04 0.12 0 
0.06 0.12 0 0.08 0.12 0 0.1 0.12 0 
0.12 0.12 0 0.14 0.12 0 0.16 0.12 0 
0.18 0.12 0 0.2 0.12 0 0.22 0.12 0 
0.24 0.12 0 0.26 0.12 0 0.28 0.12 0 
0.3 0.12 0 0.32 0.12 0 0.34 0.12 0 
0.36 0.12 0 0.38 0.12 0 0.4 0.12 0 
0.42 0.12 0 0.44 0.12 0 0.46 0.12 0 
0.48 0.12 0 0.5 0.12 0 0.52 0.12 0 
0.54 0.12 0 0.56 0.12 0 0.58 0.12 0 
0.6 0.12 0 0.62 0.12 0 0.64 0.12 0 
0.66 0.12 0 0.68 0.12 0 0.7 0.12 0 
0.72 0.12 0 0.74 0.12 0 0.76 0.12 0 
0.78 0.12 0 0.8 0.12 0 0.82 0.12 0 
0.84 0.12 0 0.86 0.12 0 0.88 0.12 0 
0.9 0.12 0 0.92 0.12 0 0.94 0.12 0 
0.96 0.12 0 0.98 0.12 0 1 0.12 0 
0 0.14 0 0.02 0.14 0 0.04 0.14 0 
0.06 0.14 0 0.08 0.14 0 0.1 0.14 0 
0.12 0.14 0 0.14 0.14 0 0.16 0.14 0 
0.18 0.14 0 0.2 0.14 0 0.22 0.14 0 
0.24 0.14 0 0.26 0.14 0 0.28 0.14 0 
0.3 0.14 0 0.32 0.14 0 0.34 0.14 0 
0.36 0.14 0 0.38 0.14 0 0.4 0.14 0 
0.42 0.14 0 0.44 0.14 0 0.46 0.14 0 
0.48 0.14 0 0.5 0.14 0 0.52 0.14 0 
0.54 0.14 0 0.56 0.14 0 0.58 0.14 0 
0.6 0.14 0 0.62 0.14 0 0.64 0.14 0 
0.66 0.14 0 0.68 0.14 0 0.7 0.14 0 
0.72 0.14 0 0.74 0.14 0 0.76 0.14 0 
0.78 0.14 0 0.8 0.14 0 0.82 0.14 0 
0.84 0.14 0 0.86 0.14 0 0.88 0.14 0 
0.9 0.14 0 0.92 0.14 0 0.94 0.14 0 
0.96 0.14 0 0.98 0.14 0 1 0.14 0 
0 0.16 0 0.02 0.16 0 0.04 0.16 0 
0.06 0.16 0 0.08 0.16 0 0.1 0.16 0 
0.12 0.16 0 0.14 0.16 0 0.16 0.16 0 
0.18 0.16 0 0.2 0.16 0 0.22 0.16 0 
0.24 0.16 0 0.26 0.16 0 0.28 0.16 0 
0.3 0.16 0 0.32 0.16 0 0.34 0.16 0 
0.36 0.16 0 0.38 0.16 0 0.4 0.16 0 
0.42 0.16 0 0.44 0.16 0 0.46 0.16 0 
0.48 0.16 0 0.5 0.16 0 0.52 0.16 0 
0.54 0.16 0 0.56 0.16 0 0.58 0.16 0 
0.6 0.16 0 0.62 0.16 0 0.64 0.16 0 
0.66 0.16 0 0.68 0.16 0 0.7 0.16 0 
0.72 0.16 0 0.74 0.16 0 0.76 0.16 0 
0.78 0.16 0 0.8 0.16 0 0.82 0.16 0 
0.84 0.16 0 0.86 0.16 0 0.88 0.16 0 
0.9 0.16 0 0.92 0.16 0 0.94 0.16 0 
0.96 0.16 0 0.98 0.16 0 1 0.16 0 
0 0.18 0 0.02 0.18 0 0.04 0.18 0 
0.06 0.18 0 0.08 0.18 0 0.1 0.18 0 
0.12 0.18 0 0.14 0.18 0 0.16 0.18 0 
0.18 0.18 0 0.2 0.18 0 0.22 0.18 0 
0.24 0.18 0 0.26 0.18 0 0.28 0.18 0 
0.3 0.18 0 0.32 0.18 0 0.34 0.18 0 
0.36 0.18 0 0.38 0.18 0 0.4 0.18 0 
0.42 0.18 0 0.44 0.18 0 0.46 0.18 0 
0.48 0.18 0 0.5 0.18 0 0.52 0.18 0 
0.54 0.18 0 0.56 0.18 0 0.58 0.18 0 
0.6 0.18 0 0.62 0.18 0 0.64 0.18 0 
0.66 0.18 0 0.68 0.18 0 0.7 0.18 0 
0.72 0.18 0 0.74 0.18 0 0.76 0.18 0 
0.78 0.18 0 0.8 0.18 0 0.82 0.18 0 
0.84 0.18 0 0.86 0.18 0 0.88 0.18 0 
0.9 0.18 0 0.92 0.18 0 0.94 0.18 0 
0.96 0.18 0 0.98 0.18 0 1 0.18 0 
0 0.2 0 0.02 0.2 0 0.04 0.2 0 
0.06 0.2 0 0.08 0.2 0 0.1 0.2 0 
0.12 0.2 0 0.14 0.2 0 0.16 0.2 0 
0.18 0.2 0 0.2 0.2 0 0.22 0.2 0 
0.24 0.2 0 0.26 0.2 0 0.28 0.2 0 
0.3 0.2 0 0.32 0.2 0 0.34 0.2 0 
0.36 0.2 0 0.38 0.2 0 0.4 0.2 0 
0.42 0.2 0 0.44 0.2 0 0.46 0.2 0 
0.48 0.2 0 0.5 0.2 0 0.52 0.2 0 
0.54 0.2 0 0.56 0.2 0 0.58 0.2 0 
0.6 0.2 0 0.62 0.2 0 0.64 0.2 0 
0.66 0.2 0 0.68 0.2 0 0.7 0.2 0 
0.72 0.2 0 0.74 0.2 0 0.76 0.2 0 
0.78 0.2 0 0.8 0.2 0 0.82 0.2 0 
0.84 0.2 0 0.86 0.2 0 0.88 0.2 0 
0.9 0.2 0 0.92 0.2 0 0.94 0.2 0 
0.96 0.2 0 0.98 0.2 0 1 0.2 0 
0 0.22 0 0.02 0.22 0 0.04 0.22 0 
0.06 0.22 0 0.08 0.22 0 0.1 0.22 0 
0.12 0.22 0 0.14 0.22 0 0.16 0.22 0 
0.18 0.22 0 0.2 0.22 0 0.22 0.22 0 
0.24 0.22 0 0.26 0.22 0 0.28 0.22 0 
0.3 0.22 0 0.32 0.22 0 0.34 0.22 0 
0.36 0.22 0 0.38 0.22 0 0.4 0.22 0 
0.42 0.22 0 0.44 0.22 0 0.46 0.22 0 
0.48 0.22 0 0.5 0.22 0 0.52 0.22 0 
0.54 0.22 0 0.56 0.22 0 0.58 0.22 0 
0.6 0.22 0 0.62 0.22 0 0.64 0.22 0 
0.66 0.22 0 0.68 0.22 0 0.7 0.22 0 
0.72 0.22 0 0.74 0.22 0 0.76 0.22 0 
0.78 0.22 0 0.8 0.22 0 0.82 0.22 0 
0.84 0.22 0 0.86 0.22 0 0.88 0.22 0 
0.9 0.22 0 0.92 0.22 0 0.94 0.22 0 
0.96 0.22 0 0.98 0.22 0 1 0.22 0 
0 0.24 0 0.02 0.24 0 0.04 0.24 0 
0.06 0.24 0 0.08 0.24 0 0.1 0.24 0 
0.12 0.24 0 0.14 0.24 0 0.16 0.24 0 
0.18 0.24 0 0.2 0.24 0 0.22 0.24 0 
0.24 0.24 0 0.26 0.24 0 0.28 0.24 0 
0.3 0.24 0 0.32 0.24 0 0.34 0.24 0 
0.36 0.24 0 0.38 0.24 0 0.4 0.24 0 
0.42 0.24 0 0.44 0.24 0 0.46 0.24 0 
0.48 0.24 0 0.5 0.24 0 0.52 0.24 0 
0.54 0.24 0 0.56 0.24 0 0.58 0.24 0 
0.6 0.24 0 0.62 0.24 0 0.64 0.24 0 
0.66 0.24 0 0.68 0.24 0 0.7 0.24 0 
0.72 0.24 0 0.74 0.24 0 0.76 0.24 0 
0.78 0.24 0 0.8 0.24 0 0.82 0.24 0 
0.84 0.24 0 0.86 0.24 0 0.88 0.24 0 
0.9 0.24 0 0.92 0.24 0 0.94 0.24 0 
0.96 0.24 0 0.98 0.24 0 1 0.24 0 
0 0.26 0 0.02 0.26 0 0.04 0.26 0 
0.06 0.26 0 0.08 0.26 0 0.1 0.26 0 
0.12 0.26 0 0.14 0.26 0 0.16 0.26 0 
0.18 0.26 0 0.2 0.26 0 0.22 0.26 0 
0.24 0.26 0 0.26 0.26 0 0.28 0.26 0 
0.3 0.26 0 0.32 0.26 0 0.34 0.26 0 
0.36 0.26 0 0.38 0.26 0 0.4 0.26 0 
0.42 0.26 0 0.44 0.26 0 0.46 0.26 0 
0.48 0.26 0 0.5 0.26 0 0.52 0.26 0 
0.54 0.26 0 0.56 0.26 0 0.58 0.26 0 
0.6 0.26 0 0.62 0.26 0 0.64 0.26 0 
0.66 0.26 0 0.68 0.26 0 0.7 0.26 0 
0.72 0.26 0 0.74 0.26 0 0.76 0.26 0 
0.78 0.26 0 0.8 0.26 0 0.82 0.26 0 
0.84 0.26 0 0.86 0.26 0 0.88 0.26 0 
0.9 0.26 0 0.92 0.26 0 0.94 0.26 0 
0.96 0.26 0 0.98 0.26 0 1 0.26 0 
0 0.28 0 0.02 0.28 0 0.04 0.28 0 
0.06 0.28 0 0.08 0.28 0 0.1 0.28 0 
0.12 0.28 0 0.14 0.28 0 0.16 0.28 0 
0.18 0.28 0 0.2 0.28 0 0.22 0.28 0 
0.24 0.28 0 0.26 0.28 0 0.28 0.28 0 
0.3 0.28 0 0.32 0.28 0 0.34 0.28 0 
0.36 0.28 0 0.38 0.28 0 0.4 0.28 0 
0.42 0.28 0 0.44 0.28 0 0.46 0.28 0 
0.48 0.28 0 0.5 0.28 0 0.52 0.28 0 
0.54 0.28 0 0.56 0.28 0 0.58 0.28 0 
0.6 0.28 0 0.62 0.28 0 0.64 0.28 0 
0.66 0.28 0 0.68 0.28 0 0.7 0.28 0 
0.72 0.28 0 0.74 0.28 0 0.76 0.28 0 
0.78 0.28 0 0.8 0.28 0 0.82 0.28 0 
0.84 0.28 0 0.86 0.28 0 0.88 0.28 0 
0.9 0.28 0 0.92 0.28 0 0.94 0.28 0 
0.96 0.28 0 0.98 0.28 0 1 0.28 0 
0 0.3 0 0.02 0.3 0 0.04 0.3 0 
0.06 0.3 0 0.08 0.3 0 0.1 0.3 0 
0.12 0.3 0 0.14 0.3 0 0.16 0.3 0 
0.18 0.3 0 0.2 0.3 0 0.22 0.3 0 
0.24 0.3 0 0.26 0.3 0 0.28 0.3 0 
0.3 0.3 0 0.32 0.3 0 0.34 0.3 0 
0.36 0.3 0 0.38 0.3 0 0.4 0.3 0 
0.42 0.3 0 0.44 0.3 0 0.46 0.3 0 
0.48 0.3 0 0.5 0.3 0 0.52 0.3 0 
0.54 0.3 0 0.56 0.3 0 0.58 0.3 0 
0.6 0.3 0 0.62 0.3 0 0.64 0.3 0 
0.66 0.3 0 0.68 0.3 0 0.7 0.3 0 
0.72 0.3 0 0.74 0.3 0 0.76 0.3 0 
0.78 0.3 0 0.8 0.3 0 0.82 0.3 0 
0.84 0.3 0 0.86 0.3 0 0.88 0.3 0 
0.9 0.3 0 0.92 0.3 0 0.94 0.3 0 
0.96 0.3 0 0.98 0.3 0 1 0.3 0 
0 0.32 0 0.02 0.32 0 0.04 0.32 0 
0.06 0.32 0 0.08 0.32 0 0.1 0.32 0 
0.12 0.32 0 0.14 0.32 0 0.16 0.32 0 
0.18 0.32 0 0.2 0.32 0 0.22 0.32 0 
0.24 0.32 0 0.26 0.32 0 0.28 0.32 0 
0.3 0.32 0 0.32 0.32 0 0.34 0.32 0 
0.36 0.32 0 0.38 0.32 0 0.4 0.32 0 
0.42 0.32 0 0.44 0.32 0 0.46 0.32 0 
0.48 0.32 0 0.5 0.32 0 0.52 0.32 0 
0.54 0.32 0 0.56 0.32 0 0.58 0.32 0 
[...]
CELL_DATA 2500
FIELD FieldData 1
pressure 1 2500 double
-0.0063653417334 -0.0064250367586 -0.0065446946696 -0.0066884351632 -0.0068281258789 -0.0069442238843 -0.0070240301315 -0.0070598033569 -0.0070472630594 
-0.0069844927921 -0.0068711582435 -0.0067079588332 -0.0064962514068 -0.0062378012165 -0.0059346267664 -0.0055889129676 -0.0052029726856 -0.0047792410604 
-0.0043202904933 -0.0038288571477 -0.0033078722407 -0.002760493365 -0.0021901326584 -0.0016004799728 -0.00099552051141 -0.0003795481173 0.00024281848463 
0.00086655009632 0.0014864729475 0.0020971750083 0.0026930379955 0.0032682874169 0.0038170576852 0.0043334721003 0.0048117388663 0.0052462650922 
0.0056317913487 0.0059635500371 0.0062374517592 0.006450305351 0.0066000797483 0.0066862202854 0.0067100398224 0.0066752183422 0.0065884655219 
0.0064604278815 0.0063069358726 0.0061505956491 0.0060221924329 0.0059592476365 -0.0063049581619 -0.0063649937179 -0.0064628056148 -0.0065755394711 
-0.0066835204318 -0.0067715386164 -0.0068287077838 -0.0068477339771 -0.0068240952105 -0.0067553196383 -0.0066404085043 -0.0064793983645 -0.0062730419319 
-0.0060225846933 -0.0057296165596 -0.0053959806955 -0.005023724518 -0.0046150805764 -0.0041724674363 -0.0036985027771 -0.0031960227345 -0.0026681030467 
-0.002118078799 -0.0015495605294 -0.00096644513537 -0.00037292013326 0.00022651221405 0.00082692180252 0.0014233095951 0.0020104548874 0.0025829606815 
0.0031353104007 0.0036619381019 0.0041573133177 0.0046160417285 0.0050329831097 0.0054033882702 0.005723057022 0.0059885196929 0.0061972454616 
0.0063478820772 0.0064405336009 0.006477085816 0.006461592409 0.0064007362185 0.0063043700001 0.0061860965894 0.006063716113 0.0059590671907 
0.005896389644 -0.0061843534907 -0.0062673944439 -0.0063661570978 -0.0064676622261 -0.0065592893669 -0.0066302796273 -0.00667226879 -0.0066792146664 
-0.0066470665731 -0.0065733707908 -0.0064569022715 -0.0062973567903 -0.0060951104578 -0.0058510420067 -0.0055664086491 -0.0052427651868 -0.0048819165979 
-0.0044858953562 -0.0040569560021 -0.0035975808306 -0.0031104917971 -0.0025986647762 -0.0020653431756 -0.0015140485506 -0.00094858621703 -0.00037304367917 
0.00020816506105 0.00079021232274 0.0013682320918 0.001937150882 0.0024917383052 0.0030266684115 0.0035365939743 0.0040162350678 0.0044604829629 
0.0048645202277 0.0052239577993 0.0055349896658 0.0057945656483 0.006000582617 0.0061520942772 0.0062495392438 0.006294985915 0.0062923891252 
0.0062478441873 0.0061698013529 0.0060691548939 0.0059590291771 0.0058539492199 0.0057679893212 -0.0060380017857 -0.0061542391961 -0.0062669631619 
-0.0063701059868 -0.0064564703793 -0.0065191707777 -0.0065523926516 -0.0065516415503 -0.0065137112584 -0.0064365248888 -0.0063189384647 -0.0061605527485 
-0.0059615537835 -0.00572258815 -0.0054446719164 -0.0051291291128 -0.0047775542482 -0.0043917933009 -0.0039739380969 -0.0035263296262 -0.0030515665029 
-0.002552515437 -0.0020323211572 -0.0014944136122 -0.00094251048158 -0.00038061298712 0.00018693272703 0.00075539691207 0.0013200042794 0.0018757807216 
0.0024176055203 0.0029402753779 0.0034385816404 0.0039074017136 0.0043418052951 0.0047371756475 0.0050893456759 0.0053947479688 0.0056505771946 
0.0058549622025 0.006007143717 0.0061076512734 0.0061584692945 0.0061631755757 0.0061270234055 0.0060569172536 0.0059611967217 0.0058490922624 
0.0057296579573 0.0056099475814 -0.0058931801796 -0.0060448844458 -0.0061778122892 -0.0062902216589 -0.0063787573963 -0.006439587191 -0.0064691330395 
-0.0064644280655 -0.006423235289 -0.0063440346084 -0.006225948604 -0.0060686499483 -0.0058722729035 -0.0056373394533 -0.0053647035475 -0.0050555129226 
-0.0047111862193 -0.004333402429 -0.0039240995059 -0.0034854791457 -0.0030200150596 -0.0025304624254 -0.0020198664638 -0.001491568291 -0.00094920633254 
-0.00039671165326 0.0001616215377 0.00072114023563 0.0012771202385 0.0018246390673 0.0023586288246 0.0028739419305 0.0033654305899 0.0038280405883 
0.0042569195648 0.0046475393022 0.0049958307848 0.0052983297578 0.0055523292118 0.0057560335011 0.0059087065248 0.006010803226 0.0060640691116 
0.0060715857305 0.0060377299958 0.0059680007535 0.0058686468528 0.0057460096735 0.0056054770762 0.005449945304 -0.0057692416177 -0.0059547833802 
-0.0061100300005 -0.0062357167727 -0.0063310387599 -0.0063944128469 -0.0064240642343 -0.0064183708086 -0.0063760344798 -0.0062961436468 -0.0061781760153 
-0.0060219738536 -0.0058277112505 -0.0055958638818 -0.0053271858602 -0.0050226951514 -0.004683667193 -0.0043116353406 -0.0039083964423 -0.0034760198024 
-0.0030168578324 -0.0025335567688 -0.0020290659183 -0.0015066439646 -0.00096986093606 -0.00042259448419 0.0001308972365 0.00068600401118 0.0012380149868 
0.0017820127249 0.0023129265205 0.0028255994891 0.0033148700653 0.0037756682092 0.0042031260292 0.0045927017062 0.0049403145264 0.0052424874557 
0.0054964919742 0.0057004877598 0.005853647162 0.0059562511092 0.0060097389413 0.0060166894835 0.005980704426 0.0059061581446 0.0057977719003 
0.0056599679359 0.0054959651154 0.0053065974244 -0.0056794517136 -0.0058956940885 -0.0060731389762 -0.0062138212386 -0.0063185436038 -0.0063873021027 
-0.0064196971611 -0.0064152103953 -0.0063733717118 -0.0062938505091 -0.0061765000187 -0.0060213762405 -0.0058287454408 -0.0055990879716 -0.0053331028072 
-0.0050317145634 -0.0046960833009 -0.0043276167786 -0.0039279844801 -0.0034991325376 -0.0030432985678 -0.0025630253961 -0.0020611726157 -0.001540924889 
-0.0010057958318 -0.00045962630549 9.3343795083e-05 0.00064850527599 0.0012011241286 0.0017462426588 0.0022787332273 0.0027933666582 0.003284895928 
0.003748155245 0.0041781738713 0.0045703029937 0.0049203526048 0.0052247336948 0.0054805990548 0.0056859736748 0.0058398630723 0.0059423249835 
0.00599448677 0.0059984879209 0.0059573246399 0.0058745726489 0.0057539664816 0.0055988206316 0.0054112918002 0.0051915027972 -0.0056328346623 
-0.0058763849983 -0.0060748788955 -0.0062309494031 -0.0063463678845 -0.006422201712 -0.0064590619147 -0.0064572953607 -0.0064171206019 -0.0063387196712 
-0.0062223000703 -0.0060681389958 -0.005876617285 -0.0056482484291 -0.0053837051045 -0.0050838444515 -0.004749732584 -0.0043826684239 -0.0039842067057 
-0.0035561797845 -0.0031007178147 -0.00262026679 -0.0021176037643 -0.001595848408 -0.0010584699287 -0.00050928829019 4.7455473713e-05 0.00060710719259 
0.0011648741615 0.001715714327 0.0022543903654 0.0027755395121 0.0032737598337 0.0037437129828 0.0041802425255 0.0045785056668 0.0049341145985 
0.0052432817826 0.0055029612968 0.0057109760085 0.0058661179237 0.0059682067995 0.0060180903261 0.0060175683147 0.0059692240496 0.0058761490691 
0.0057415540014 0.0055682682006 0.0053581442501 0.0051113977804 -0.0056355745201 -0.0059033899175 -0.0061214706143 -0.0062926511892 -0.0064192604998 
-0.0065030764968 -0.0065454362934 -0.0065473462371 -0.0065095767176 -0.0064327401591 -0.0063173564378 -0.0061639090204 -0.0059728956094 -0.0057448745187 
-0.0054805077908 -0.0051806012642 -0.0048461418542 -0.0044783321075 -0.0040786219732 -0.003648737856 -0.0031907089238 -0.0027068904139 -0.0021999835094 
-0.0016730511848 -0.0011295291875 -0.00057323109921 -8.4182574314e-06 0.00056016204388 0.0011276239264 0.0016887980211 0.0022382856741 0.0027705303026 
0.0032799067753 0.0037608288929 0.0042078739055 0.0046159215038 0.0049803028644 0.0052969531823 0.0055625587878 0.0057746876033 0.005931889578 
0.0060337521973 0.006080895563 0.0060748924259 0.0060181013746 0.0059134066412 0.0057638657137 0.0055722755191 0.0053406775548 0.0050698288908 
-0.0056920084372 -0.0059816589951 -0.0062179514552 -0.0064037113261 -0.0065415728264 -0.0066337811341 -0.0066821915021 -0.0066883070742 -0.006653331863 
-0.0065782296251 -0.0064637840287 -0.006310659474 -0.0061194608286 -0.0058907915147 -0.0056253086201 -0.005323774793 -0.0049871062675 -0.0046164168274 
-0.0042130579434 -0.0037786552025 -0.0033151411088 -0.0028247842685 -0.0023102147597 -0.0017744452053 -0.0012208867687 -0.00065335898341 -7.6159553705e-05 
0.00050582176576 0.0010875729036 0.0016637554316 0.0022287585252 0.0027767719024 0.0033018788827 0.0037981697954 0.0042598746444 0.004681512184 
0.0050580504211 0.0053850711367 0.0056589285127 0.005876889597 0.0060372425108 0.0061393573711 0.0061836853151 0.0061716831496 0.0061056553043 
0.0059885108776 0.0058234411416 0.0056135306039 0.0053613203846 0.0050683437535 -0.0058053232925 -0.0061150783559 -0.0063685021678 -0.0065683120157 
-0.0067173021243 -0.0068180295021 -0.0068727245221 -0.0068832672806 -0.0068512026766 -0.006777778167 -0.0066639959189 -0.0065106731138 -0.0063185066338 
-0.0060881383202 -0.0058202192751 -0.0055154707878 -0.0051747411882 -0.0047990583161 -0.0043896774422 -0.0039481248639 -0.003476237424 -0.0029761980906 
-0.0024505675326 -0.0019023112615 -0.0013348215488 -0.00075193299116 -0.00015798915344 0.00044192743776 0.001042647585 0.0016386235264 0.0022239821044 
0.0027925991958 0.0033381969376 0.0038544643055 0.0043352000785 0.0047744751767 0.0051668088683 0.0055073505766 0.0057920562341 0.0060178456985 
0.0061827260744 0.0062858653359 0.0063276018094 0.0063093781338 0.0062335932164 0.0061033721164 0.0059222606705 0.005693857464 0.0054213986737 
0.0051073096995 -0.0059780482313 -0.0063068728241 -0.0065767356253 -0.0067902126561 -0.0069501831622 -0.0070594243388 -0.0071204501531 -0.007135436355 
-0.0071062015752 -0.0070342254726 -0.0069206912024 -0.0067665433284 -0.0065725541169 -0.0063393943356 -0.0060677036444 -0.0057581589381 -0.0054115388095 
-0.0050287834381 -0.00461104977 -0.0041597621038 -0.0036766584878 -0.0031638331519 -0.0026237748833 -0.0020594009999 -0.0014740861693 -0.00087168480167 
-0.00025658554165 0.00036588504327 0.00099037282983 0.0016110824886 0.0022218291353 0.0028161139464 0.003387225854 0.0039283704594 0.0044328255502 
0.0048941201689 0.0053062312392 0.0056637885275 0.0059622755355 0.0061982112332 0.0063692958485 0.0064745037575 0.0065141082575 0.0064896267426 
0.0064036803742 0.0062597688231 0.0060619669445 0.0058145548917 0.0055215945278 0.0051864626621 -0.0062124067861 -0.0065599147472 -0.0068459401931 
-0.0070729235005 -0.0072438000144 -0.007361520741 -0.0074288316674 -0.0074481548112 -0.0074215395894 -0.0073506628749 -0.0072368618488 -0.0070811880105 
-0.0068844748741 -0.0066474114826 -0.0063706183441 -0.0060547216872 -0.0057004245959 -0.0053085736402 -0.0048802208015 -0.0044166810723 -0.0039195858705 
-0.0033909325381 -0.0028331301397 -0.0022490412439 -0.0016420187321 -0.0010159360541 -0.00037521188809 0.00027453161552 0.00092773205218 0.0015783110637 
0.0022197238204 0.0028450351552 0.0034470256314 0.0040183297145 0.004551606037 0.005039736841 0.0054760501928 0.0058545547029 0.0061701726503 
0.0064189541986 0.0065982534594 0.0067068471303 0.0067449785861 0.0067143148161 0.0066178096469 0.0064594736832 0.0062440577188 0.0059766603773 
0.0056622718309 0.0053052637718 -0.0065105706461 -0.0068769601287 -0.0071792802251 -0.007419863272 -0.0076017017798 -0.0077279063782 -0.0078014337573 
-0.0078249290092 -0.0078006505691 -0.0077304534284 -0.0076158124076 -0.0074578731019 -0.0072575189316 -0.0070154479649 -0.0067322527783 -0.0064085005472 
-0.0060448098379 -0.0056419236326 -0.0052007780828 -0.004722566772 -0.0042088011325 -0.0036613675485 -0.0030825812807 -0.0024752369742 -0.0018426547863 
-0.0011887199648 -0.00051784858921 0.00016399325975 0.00085101698182 0.0015368292818 0.0022144792421 0.0028765335172 0.0035151858832 0.0041224049734 
0.004690121203 0.0052104503995 0.0056759473816 0.0060798779362 0.0064164929158 0.0066812842333 0.0068712001359 0.0069847969211 0.0070223068296 
0.0069856068755 0.0068780807819 0.0067043740143 0.0064700487992 0.0061811507293 0.0058436999435 0.0054631189178 -0.0068748432934 -0.0072608293631 
-0.0075799596404 -0.0078344977387 -0.0080275139825 -0.0081622874452 -0.0082419873041 -0.0082694799488 -0.0082472291541 -0.0081772630412 -0.0080611890865 
-0.0079002407592 -0.0076953450964 -0.0074472014853 -0.0071563663685 -0.0068233376529 -0.006448637826 -0.0060328931911 -0.0055769087708 -0.0050817394144 
-0.0045487575025 -0.0039797178892 -0.0033768205406 -0.0027427708605 -0.0020808371115 -0.0013949026447 -0.00068933243411 2.9534079831e-05 0.00075566574803 
0.0014823264555 0.0022021171913 0.00290704609 0.0035886390157 0.0042380964148 0.0048464985799 0.0054050573409 0.0059054070908 0.0063399223033 
0.0067020428136 0.0069865829181 0.0071899968951 0.0073105729486 0.0073485303835 0.0073060013337 0.0071868868261 0.0069965867824 0.0067416122678 
0.006429093942 0.0060662030594 0.0056595014542 -0.0073077932856 -0.0077145463798 -0.008051355457 -0.0083204601161 -0.0085250420744 -0.0086685745085 
-0.0087544591614 -0.008785799475 -0.0087652761459 -0.0086950989728 -0.0085770127391 -0.0084123405073 -0.0082020509258 -0.0079468404059 -0.0076472208864 
-0.0073036106841 -0.0069164228465 -0.0064861504463 -0.0060134480388 -0.0054992094822 -0.0049446430213 -0.0043513442647 -0.0037213678471 -0.0030572985205 
-0.0023623220368 -0.0016402978798 -0.00089550867242 -0.00013460588026 0.00063608738908 0.001409471504 0.0021776660537 0.002932064747 0.0036634435798 
0.0043621256542 0.0050182055515 0.005621832307 0.006163544265 0.0066346418448 0.0070275763401 0.0073363258699 0.0075567247726 0.0076867116328 
0.0077264642285 0.0076783968977 0.0075470072718 0.0073385717152 0.0070607002581 0.0067217700579 0.0063302599401 0.005894008616 -0.0078123518393 
-0.0082414474154 -0.0085971282057 -0.0088816560716 -0.0090983665537 -0.0092509657587 -0.0093431230828 -0.0093782094142 -0.0093591481771 -0.0092883510166 
-0.0091677145323 -0.0089986599564 -0.0087822014323 -0.0085190299149 -0.0082096071829 -0.007854260987 -0.0074532799832 -0.0070070050321 -0.0065159171648 
-0.0059807223309 -0.0054024334929 -0.0047824516706 -0.0041226470821 -0.0034254405298 -0.0026938850498 -0.0019317470279 -0.0011434245414 -0.00033538094968 
0.00048547333106 0.0013117022852 0.0021349299832 0.0029458897138 0.0037345286783 0.0044901784622 0.0052017980024 0.0058582907817 0.0064488903924 
0.006963599084 0.0073936541185 0.0077319872978 0.0079736363596 0.0081160637271 0.0081593412833 0.0081061694622 0.0079617129213 0.0077332522856 
0.0074296672911 0.0070607779663 0.0066365757959 0.0061663764677 -0.0083918862195 -0.0088452688175 -0.0092213158407 -0.0095223571784 -0.0097519312996 
-0.0099140271721 -0.010012629924 -0.010051422196 -0.010033608713 -0.0099618342314 -0.0098381708923 -0.0096641546561 -0.0094408530829 -0.0091689543865 
-0.0088488651016 -0.0084808124863 -0.0080649448693 -0.0076014300976 -0.0070905497998 -0.006532790371 -0.0059289325291 -0.0052801406483 -0.0045880527532 
-0.003854872687 -0.0030834649629 -0.0022774476389 -0.001441276488 -0.00058107559219 0.00029559771719 0.0011809887439 0.0020662236804 0.0029413418595 
0.0037953895672 0.0046165908861 0.0053926071326 0.0061108895701 0.0067591210064 0.0073257311674 0.0078004573749 0.0081749092507 0.0084430851048 
0.0086017836306 0.0086508569678 0.0085932622176 0.0084348877591 0.008184153336 0.0078514055887 0.0074481476397 0.006986148541 0.0064764762846 
-0.0090502583797 -0.0095302219826 -0.0099284176456 -0.010247287414 -0.01049062761 -0.010662770496 -0.010768077931 -0.010810601934 -0.010793879409 
-0.010720830991 -0.010593737996 -0.010414274045 -0.010183575278 -0.0099023322765 -0.0095708950312 -0.00918938059 -0.0087577818773 -0.0082760717217 
-0.0077443035888 -0.0071627094566 -0.0065317962 -0.0058524420877 -0.0051259964909 -0.0043543847735 -0.0035402153575 -0.0026868931662 -0.0017987399958 
-0.00088153312282 5.658090671e-05 0.0010075652225 0.0019620687363 0.0029094242762 0.003837720137 0.0047339633261 0.0055843490934 0.0063746464879 
0.0070907004994 0.007719036063 0.0082475321743 0.008666116575 0.0089674175148 0.0091472993946 0.0092052108843 0.0091442874815 0.0089711745114 
0.0086955690067 0.0083295108647 0.0078864781298 0.0073803524155 0.0068243160848 -0.0097918769403 -0.010301063154 -0.01072347439 -0.011061707331 
-0.011319877574 -0.011502732101 -0.011615083855 -0.011661425879 -0.011645691916 -0.011571133281 -0.011440283204 -0.011254985249 -0.011016464247 
-0.010725424269 -0.010382159118 -0.0099866697852 -0.0095387786648 -0.0090382414836 -0.0084848542726 -0.0078785572868 -0.0072195369613 -0.0065083304609 
-0.0057459355262 -0.0049339229146 -0.0040745614374 -0.0031709498622 -0.002227149689 -0.0012483597438 -0.0002433544557 0.00077963760708 0.0018108489062 
0.0028389274614 0.0038509756049 0.0048326912956 0.005768636469 0.0066426506198 0.0074384143599 0.008140151332 0.0087334356995 0.0092060483672 
0.0095488023309 0.0097562441745 0.0098271364429 0.0097646402988 0.0095761498682 0.0092727726921 0.0088684972217 0.0083791254647 0.0078210659644 
0.0072100751727 -0.010621750426 -0.01116316469 -0.011612150846 -0.011971501952 -0.012245721389 -0.012440054888 -0.012559856749 -0.012610148725 
-0.012595340962 -0.012519083136 -0.012384215054 -0.012192790674 -0.011946151651 -0.011645030578 -0.011289671977 -0.01087995602 -0.010415522758 
-0.0098958902124 -0.0093205680698 -0.0086891657798 -0.0080015013115 -0.0072577127861 -0.0064583710855 -0.0056046100964 -0.0046982640447 -0.0037420144905 
-0.0027395554332 -0.0016950852544 -0.00061812023091 0.00048307560002 0.0015984312894 0.0027159825638 0.0038218608689 0.0049003965784 0.0059343702879 
0.0069054398193 0.0077947593059 0.008583786107 0.0092552423548 0.009794167058 0.01018896371 0.010432323931 0.010521900112 0.010460614701 
0.010256532669 0.0099222831015 0.0094740822804 0.0089304669974 0.0083108756795 0.0076342061478 -0.011545547861 -0.012122595504 -0.012600828637 
-0.012983277837 -0.013274912624 -0.013481578069 -0.013609278343 -0.013663670488 -0.013649738584 -0.013571613637 -0.013432509277 -0.013234741037 
-0.012979802567 -0.012668478771 -0.012300974654 -0.0118770512 -0.011396157234 -0.010857556277 -0.010260443861 -0.0096040625376 -0.0088878147134 
-0.0081113729589 -0.0072748090575 -0.0063787262843 -0.0054244096903 -0.004414003803 -0.0033506928784 -0.0022372878449 -0.0010839853371 0.00010110519295 
0.0013077721569 0.0025235708484 0.0037337440015 0.004921256958 0.0060670024559 0.0071502190679 0.0081491521837 0.0090419633343 0.0098078625566 
0.010428395076 0.010888769704 0.01117907884 0.011295241126 0.011239508118 0.011020422719 0.010652195857 0.010153563501 0.0095462724057 
0.0088533924971 0.0080976475992 -0.012569676003 -0.013186218987 -0.013696715165 -0.014104475883 -0.014415028884 -0.014634938874 -0.014770991926 
-0.014829610941 -0.014816471837 -0.014736288858 -0.01459273162 -0.014388439583 -0.014125104857 -0.013803594103 -0.013424091206 -0.012986244176 
-0.012489308712 -0.011932280247 -0.011314019844 -0.010633371411 -0.0098892713291 -0.0090808724688 -0.0082076650588 -0.0072696190292 -0.0062673553329 
-0.0052023303406 -0.0040770616174 -0.0028927363325 -0.0016597674628 -0.00038596353025 0.0009185313932 0.0022410156121 0.0035660220025 0.0048752448819 
0.0061476612307 0.0073599030073 0.0084869295787 0.0095030263772 0.010383115693 0.011104314523 0.011647612003 0.011999481688 0.012153205047 
0.012109682303 0.011877557395 0.01147258527 0.010916304701 0.010234212782 0.0094537237651 0.0086022006188 -0.013701380597 -0.014361815977 
-0.014907978927 -0.015343509225 -0.015674602948 -0.015908691635 -0.01605350555 -0.016116392186 -0.016103864599 -0.016021343734 -0.015873054618 
-0.015662038335 -0.015390241544 -0.015058652578 -0.014667459577 -0.014216212817 -0.013703978061 -0.013129480136 -0.012491232106 -0.011787650064 
-0.011017173175 -0.010178373936 -0.0092700848137 -0.0082915468889 -0.0072425732515 -0.006123775453 -0.0049368797371 -0.0036815044582 -0.0023669344731 
-0.0010009216073 0.00040676241389 0.0018435150603 0.0032934784212 0.0047373092931 0.006152166781 0.0075119870875 0.0087881184096 0.0099503715859 
0.010968500141 0.011814057283 0.012462496403 0.012895293659 0.013101803039 0.013080530098 0.012839556009 0.012395968868 0.011774346735 
0.011004539565 0.010119147684 0.0091511314686 -0.014948882575 -0.015658245413 -0.016243921197 -0.016709933916 -0.017063283638 -0.017312451307 