# vtk DataFile Version 4.1
vtk output
ASCII
DATASET STRUCTURED_GRID
DIMENSIONS 51 51 1
POINTS 2601 float
0 0 0 0.02 0 0 0.04 0 0 
0.06 0 0 0.08 0 0 0.1 0 0 
0.12 0 0 0.14 0 0 0.16 0 0 
0.18 0 0 0.2 0 0 0.22 0 0 
0.24 0 0 0.26 0 0 0.28 0 0 
0.3 0 0 0.32 0 0 0.34 0 0 
0.36 0 0 0.38 0 0 0.4 0 0 
0.42 0 0 0.44 0 0 0.46 0 0 
0.48 0 0 0.5 0 0 0.52 0 0 
0.54 0 0 0.56 0 0 0.58 0 0 
0.6 0 0 0.62 0 0 0.64 0 0 
0.66 0 0 0.68 0 0 0.7 0 0 
0.72 0 0 0.74 0 0 0.76 0 0 
0.78 0 0 0.8 0 0 0.82 0 0 
0.84 0 0 0.86 0 0 0.88 0 0 
0.9 0 0 0.92 0 0 0.94 0 0 
0.96 0 0 0.98 0 0 1 0 0 
0 0.02 0 0.02 0.02 0 0.04 0.02 0 
0.06 0.02 0 0.08 0.02 0 0.1 0.02 0 
0.12 0.02 0 0.14 0.02 0 0.16 0.02 0 
0.18 0.02 0 0.2 0.02 0 0.22 0.02 0 
0.24 0.02 0 0.26 0.02 0 0.28 0.02 0 
0.3 0.02 0 0.32 0.02 0 0.34 0.02 0 
0.36 0.02 0 0.38 0.02 0 0.4 0.02 0 
0.42 0.02 0 0.44 0.02 0 0.46 0.02 0 
0.48 0.02 0 0.5 0.02 0 0.52 0.02 0 
0.54 0.02 0 0.56 0.02 0 0.58 0.02 0 
0.6 0.02 0 0.62 0.02 0 0.64 0.02 0 
0.66 0.02 0 0.68 0.02 0 0.7 0.02 0 
0.72 0.02 0 0.74 0.02 0 0.76 0.02 0 
0.78 0.02 0 0.8 0.02 0 0.82 0.02 0 
0.84 0.02 0 0.86 0.02 0 0.88 0.02 0 
0.9 0.02 0 0.92 0.02 0 0.94 0.02 0 
0.96 0.02 0 0.98 0.02 0 1 0.02 0 
0 0.04 0 0.02 0.04 0 0.04 0.04 0 
0.06 0.04 0 0.08 0.04 0 0.1 0.04 0 
0.12 0.04 0 0.14 0.04 0 0.16 0.04 0 
0.18 0.04 0 0.2 0.04 0 0.22 0.04 0 
0.24 0.04 0 0.26 0.04 0 0.28 0.04 0 
0.3 0.04 0 0.32 0.04 0 0.34 0.04 0 
0.36 0.04 0 0.38 0.04 0 0.4 0.04 0 
0.42 0.04 0 0.44 0.04 0 0.46 0.04 0 
0.48 0.04 0 0.5 0.04 0 0.52 0.04 0 
0.54 0.04 0 0.56 0.04 0 0.58 0.04 0 
0.6 0.04 0 0.62 0.04 0 0.64 0.04 0 
0.66 0.04 0 0.68 0.04 0 0.7 0.04 0 
0.72 0.04 0 0.74 0.04 0 0.76 0.04 0 
0.78 0.04 0 0.8 0.04 0 0.82 0.04 0 
0.84 0.04 0 0.86 0.04 0 0.88 0.04 0 
0.9 0.04 0 0.92 0.04 0 0.94 0.04 0 
0.96 0.04 0 0.98 0.04 0 1 0.04 0 
0 0.06 0 0.02 0.06 0 0.04 0.06 0 
0.06 0.06 0 0.08 0.06 0 0.1 0.06 0 
0.12 0.06 0 0.14 0.06 0 0.16 0.06 0 
0.18 0.06 0 0.2 0.06 0 0.22 0.06 0 
0.24 0.06 0 0.26 0.06 0 0.28 0.06 0 
0.3 0.06 0 0.32 0.06 0 0.34 0.06 0 
0.36 0.06 0 0.38 0.06 0 0.4 0.06 0 
0.42 0.06 0 0.44 0.06 0 0.46 0.06 0 
0.48 0.06 0 0.5 0.06 0 0.52 0.06 0 
0.54 0.06 0 0.56 0.06 0 0.58 0.06 0 
0.6 0.06 0 0.62 0.06 0 0.64 0.06 0 
0.66 0.06 0 0.68 0.06 0 0.7 0.06 0 
0.72 0.06 0 0.74 0.06 0 0.76 0.06 0 
0.78 0.06 0 0.8 0.06 0 0.82 0.06 0 
0.84 0.06 0 0.86 0.06 0 0.88 0.06 0 
0.9 0.06 0 0.92 0.06 0 0.94 0.06 0 
0.96 0.06 0 0.98 0.06 0 1 0.06 0 
0 0.08 0 0.02 0.08 0 0.04 0.08 0 
0.06 0.08 0 0.08 0.08 0 0.1 0.08 0 
0.12 0.08 0 0.14 0.08 0 0.16 0.08 0 
0.18 0.08 0 0.2 0.08 0 0.22 0.08 0 
0.24 0.08 0 0.26 0.08 0 0.28 0.08 0 
0.3 0.08 0 0.32 0.08 0 0.34 0.08 0 
0.36 0.08 0 0.38 0.08 0 0.4 0.08 0 
0.42 0.08 0 0.44 0.08 0 0.46 0.08 0 
0.48 0.08 0 0.5 0.08 0 0.52 0.08 0 
0.54 0.08 0 0.56 0.08 0 0.58 0.08 0 
0.6 0.08 0 0.62 0.08 0 0.64 0.08 0 
0.66 0.08 0 0.68 0.08 0 0.7 0.08 0 
0.72 0.08 0 0.74 0.08 0 0.76 0.08 0 
0.78 0.08 0 0.8 0.08 0 0.82 0.08 0 
0.84 0.08 0 0.86 0.08 0 0.88 0.08 0 
0.9 0.08 0 0.92 0.08 0 0.94 0.08 0 
0.96 0.08 0 0.98 0.08 0 1 0.08 0 
0 0.1 0 0.02 0.1 0 0.04 0.1 0 
0.06 0.1 0 0.08 0.1 0 0.1 0.1 0 
0.12 0.1 0 0.14 0.1 0 0.16 0.1 0 
0.18 0.1 0 0.2 0.1 0 0.22 0.1 0 
0.24 0.1 0 0.26 0.1 0 0.28 0.1 0 
0.3 0.1 0 0.32 0.1 0 0.34 0.1 0 
0.36 0.1 0 0.38 0.1 0 0.4 0.1 0 
0.42 0.1 0 0.44 0.1 0 0.46 0.1 0 
0.48 0.1 0 0.5 0.1 0 0.52 0.1 0 
0.54 0.1 0 0.56 0.1 0 0.58 0.1 0 
0.6 0.1 0 0.62 0.1 0 0.64 0.1 0 
0.66 0.1 0 0.68 0.1 0 0.7 0.1 0 
0.72 0.1 0 0.74 0.1 0 0.76 0.1 0 
0.78 0.1 0 0.8 0.1 0 0.82 0.1 0 
0.84 0.1 0 0.86 0.1 0 0.88 0.1 0 
0.9 0.1 0 0.92 0.1 0 0.94 0.1 0 
0.96 0.1 0 0.98 0.1 0 1 0.1 0 
0 0.12 0 0.02 0.12 0 0.04 0.12 0 
0.06 0.12 0 0.08 0.12 0 0.1 0.12 0 
0.12 0.12 0 0.14 0.12 0 0.16 0.12 0 
0.18 0.12 0 0.2 0.12 0 0.22 0.12 0 
0.24 0.12 0 0.26 0.12 0 0.28 0.12 0 
0.3 0.12 0 0.32 0.12 0 0.34 0.12 0 
0.36 0.12 0 0.38 0.12 0 0.4 0.12 0 
0.42 0.12 0 0.44 0.12 0 0.46 0.12 0 
0.48 0.12 0 0.5 0.12 0 0.52 0.12 0 
0.54 0.12 0 0.56 0.12 0 0.58 0.12 0 
0.6 0.12 0 0.62 0.12 0 0.64 0.12 0 
0.66 0.12 0 0.68 0.12 0 0.7 0.12 0 
0.72 0.12 0 0.74 0.12 0 0.76 0.12 0 
0.78 0.12 0 0.8 0.12 0 0.82 0.12 0 
0.84 0.12 0 0.86 0.12 0 0.88 0.12 0 
0.9 0.12 0 0.92 0.12 0 0.94 0.12 0 
0.96 0.12 0 0.98 0.12 0 1 0.12 0 
0 0.14 0 0.02 0.14 0 0.04 0.14 0 
0.06 0.14 0 0.08 0.14 0 0.1 0.14 0 
0.12 0.14 0 0.14 0.14 0 0.16 0.14 0 
0.18 0.14 0 0.2 0.14 0 0.22 0.14 0 
0.24 0.14 0 0.26 0.14 0 0.28 0.14 0 
0.3 0.14 0 0.32 0.14 0 0.34 0.14 0 
0.36 0.14 0 0.38 0.14 0 0.4 0.14 0 
0.42 0.14 0 0.44 0.14 0 0.46 0.14 0 
0.48 0.14 0 0.5 0.14 0 0.52 0.14 0 
0.54 0.14 0 0.56 0.14 0 0.58 0.14 0 
0.6 0.14 0 0.62 0.14 0 0.64 0.14 0 
0.66 0.14 0 0.68 0.14 0 0.7 0.14 0 
0.72 0.14 0 0.74 0.14 0 0.76 0.14 0 
0.78 0.14 0 0.8 0.14 0 0.82 0.14 0 
0.84 0.14 0 0.86 0.14 0 0.88 0.14 0 
0.9 0.14 0 0.92 0.14 0 0.94 0.14 0 
0.96 0.14 0 0.98 0.14 0 1 0.14 0 
0 0.16 0 0.02 0.16 0 0.04 0.16 0 
0.06 0.16 0 0.08 0.16 0 0.1 0.16 0 
0.12 0.16 0 0.14 0.16 0 0.16 0.16 0 
0.18 0.16 0 0.2 0.16 0 0.22 0.16 0 
0.24 0.16 0 0.26 0.16 0 0.28 0.16 0 
0.3 0.16 0 0.32 0.16 0 0.34 0.16 0 
0.36 0.16 0 0.38 0.16 0 0.4 0.16 0 
0.42 0.16 0 0.44 0.16 0 0.46 0.16 0 
0.48 0.16 0 0.5 0.16 0 0.52 0.16 0 
0.54 0.16 0 0.56 0.16 0 0.58 0.16 0 
0.6 0.16 0 0.62 0.16 0 0.64 0.16 0 
0.66 0.16 0 0.68 0.16 0 0.7 0.16 0 
0.72 0.16 0 0.74 0.16 0 0.76 0.16 0 
0.78 0.16 0 0.8 0.16 0 0.82 0.16 0 
0.84 0.16 0 0.86 0.16 0 0.88 0.16 0 
0.9 0.16 0 0.92 0.16 0 0.94 0.16 0 
0.96 0.16 0 0.98 0.16 0 1 0.16 0 
0 0.18 0 0.02 0.18 0 0.04 0.18 0 
0.06 0.18 0 0.08 0.18 0 0.1 0.18 0 
0.12 0.18 0 0.14 0.18 0 0.16 0.18 0 
0.18 0.18 0 0.2 0.18 0 0.22 0.18 0 
0.24 0.18 0 0.26 0.18 0 0.28 0.18 0 
0.3 0.18 0 0.32 0.18 0 0.34 0.18 0 
0.36 0.18 0 0.38 0.18 0 0.4 0.18 0 
0.42 0.18 0 0.44 0.18 0 0.46 0.18 0 
0.48 0.18 0 0.5 0.18 0 0.52 0.18 0 
0.54 0.18 0 0.56 0.18 0 0.58 0.18 0 
0.6 0.18 0 0.62 0.18 0 0.64 0.18 0 
0.66 0.18 0 0.68 0.18 0 0.7 0.18 0 
0.72 0.18 0 0.74 0.18 0 0.76 0.18 0 
0.78 0.18 0 0.8 0.18 0 0.82 0.18 0 
0.84 0.18 0 0.86 0.18 0 0.88 0.18 0 
0.9 0.18 0 0.92 0.18 0 0.94 0.18 0 
0.96 0.18 0 0.98 0.18 0 1 0.18 0 
0 0.2 0 0.02 0.2 0 0.04 0.2 0 
0.06 0.2 0 0.08 0.2 0 0.1 0.2 0 
0.12 0.2 0 0.14 0.2 0 0.16 0.2 0 
0.18 0.2 0 0.2 0.2 0 0.22 0.2 0 
0.24 0.2 0 0.26 0.2 0 0.28 0.2 0 
0.3 0.2 0 0.32 0.2 0 0.34 0.2 0 
0.36 0.2 0 0.38 0.2 0 0.4 0.2 0 
0.42 0.2 0 0.44 0.2 0 0.46 0.2 0 
0.48 0.2 0 0.5 0.2 0 0.52 0.2 0 
0.54 0.2 0 0.56 0.2 0 0.58 0.2 0 
0.6 0.2 0 0.62 0.2 0 0.64 0.2 0 
0.66 0.2 0 0.68 0.2 0 0.7 0.2 0 
0.72 0.2 0 0.74 0.2 0 0.76 0.2 0 
0.78 0.2 0 0.8 0.2 0 0.82 0.2 0 
0.84 0.2 0 0.86 0.2 0 0.88 0.2 0 
0.9 0.2 0 0.92 0.2 0 0.94 0.2 0 
0.96 0.2 0 0.98 0.2 0 1 0.2 0 
0 0.22 0 0.02 0.22 0 0.04 0.22 0 
0.06 0.22 0 0.08 0.22 0 0.1 0.22 0 
0.12 0.22 0 0.14 0.22 0 0.16 0.22 0 
0.18 0.22 0 0.2 0.22 0 0.22 0.22 0 
0.24 0.22 0 0.26 0.22 0 0.28 0.22 0 
0.3 0.22 0 0.32 0.22 0 0.34 0.22 0 
0.36 0.22 0 0.38 0.22 0 0.4 0.22 0 
0.42 0.22 0 0.44 0.22 0 0.46 0.22 0 
0.48 0.22 0 0.5 0.22 0 0.52 0.22 0 
0.54 0.22 0 0.56 0.22 0 0.58 0.22 0 
0.6 0.22 0 0.62 0.22 0 0.64 0.22 0 
0.66 0.22 0 0.68 0.22 0 0.7 0.22 0 
0.72 0.22 0 0.74 0.22 0 0.76 0.22 0 
0.78 0.22 0 0.8 0.22 0 0.82 0.22 0 
0.84 0.22 0 0.86 0.22 0 0.88 0.22 0 
0.9 0.22 0 0.92 0.22 0 0.94 0.22 0 
0.96 0.22 0 0.98 0.22 0 1 0.22 0 
0 0.24 0 0.02 0.24 0 0.04 0.24 0 
0.06 0.24 0 0.08 0.24 0 0.1 0.24 0 
0.12 0.24 0 0.14 0.24 0 0.16 0.24 0 
0.18 0.24 0 0.2 0.24 0 0.22 0.24 0 
0.24 0.24 0 0.26 0.24 0 0.28 0.24 0 
0.3 0.24 0 0.32 0.24 0 0.34 0.24 0 
0.36 0.24 0 0.38 0.24 0 0.4 0.24 0 
0.42 0.24 0 0.44 0.24 0 0.46 0.24 0 
0.48 0.24 0 0.5 0.24 0 0.52 0.24 0 
0.54 0.24 0 0.56 0.24 0 0.58 0.24 0 
0.6 0.24 0 0.62 0.24 0 0.64 0.24 0 
0.66 0.24 0 0.68 0.24 0 0.7 0.24 0 
0.72 0.24 0 0.74 0.24 0 0.76 0.24 0 
0.78 0.24 0 0.8 0.24 0 0.82 0.24 0 
0.84 0.24 0 0.86 0.24 0 0.88 0.24 0 
0.9 0.24 0 0.92 0.24 0 0.94 0.24 0 
0.96 0.24 0 0.98 0.24 0 1 0.24 0 
0 0.26 0 0.02 0.26 0 0.04 0.26 0 
0.06 0.26 0 0.08 0.26 0 0.1 0.26 0 
0.12 0.26 0 0.14 0.26 0 0.16 0.26 0 
0.18 0.26 0 0.2 0.26 0 0.22 0.26 0 
0.24 0.26 0 0.26 0.26 0 0.28 0.26 0 
0.3 0.26 0 0.32 0.26 0 0.34 0.26 0 
0.36 0.26 0 0.38 0.26 0 0.4 0.26 0 
0.42 0.26 0 0.44 0.26 0 0.46 0.26 0 
0.48 0.26 0 0.5 0.26 0 0.52 0.26 0 
0.54 0.26 0 0.56 0.26 0 0.58 0.26 0 
0.6 0.26 0 0.62 0.26 0 0.64 0.26 0 
0.66 0.26 0 0.68 0.26 0 0.7 0.26 0 
0.72 0.26 0 0.74 0.26 0 0.76 0.26 0 
0.78 0.26 0 0.8 0.26 0 0.82 0.26 0 
0.84 0.26 0 0.86 0.26 0 0.88 0.26 0 
0.9 0.26 0 0.92 0.26 0 0.94 0.26 0 
0.96 0.26 0 0.98 0.26 0 1 0.26 0 
0 0.28 0 0.02 0.28 0 0.04 0.28 0 
0.06 0.28 0 0.08 0.28 0 0.1 0.28 0 
0.12 0.28 0 0.14 0.28 0 0.16 0.28 0 
0.18 0.28 0 0.2 0.28 0 0.22 0.28 0 
0.24 0.28 0 0.26 0.28 0 0.28 0.28 0 
0.3 0.28 0 0.32 0.28 0 0.34 0.28 0 
0.36 0.28 0 0.38 0.28 0 0.4 0.28 0 
0.42 0.28 0 0.44 0.28 0 0.46 0.28 0 
0.48 0.28 0 0.5 0.28 0 0.52 0.28 0 
0.54 0.28 0 0.56 0.28 0 0.58 0.28 0 
0.6 0.28 0 0.62 0.28 0 0.64 0.28 0 
0.66 0.28 0 0.68 0.28 0 0.7 0.28 0 
0.72 0.28 0 0.74 0.28 0 0.76 0.28 0 
0.78 0.28 0 0.8 0.28 0 0.82 0.28 0 
0.84 0.28 0 0.86 0.28 0 0.88 0.28 0 
0.9 0.28 0 0.92 0.28 0 0.94 0.28 0 
0.96 0.28 0 0.98 0.28 0 1 0.28 0 
0 0.3 0 0.02 0.3 0 0.04 0.3 0 
0.06 0.3 0 0.08 0.3 0 0.1 0.3 0 
0.12 0.3 0 0.14 0.3 0 0.16 0.3 0 
0.18 0.3 0 0.2 0.3 0 0.22 0.3 0 
0.24 0.3 0 0.26 0.3 0 0.28 0.3 0 
0.3 0.3 0 0.32 0.3 0 0.34 0.3 0 
0.36 0.3 0 0.38 0.3 0 0.4 0.3 0 
0.42 0.3 0 0.44 0.3 0 0.46 0.3 0 
0.48 0.3 0 0.5 0.3 0 0.52 0.3 0 
0.54 0.3 0 0.56 0.3 0 0.58 0.3 0 
0.6 0.3 0 0.62 0.3 0 0.64 0.3 0 
0.66 0.3 0 0.68 0.3 0 0.7 0.3 0 
0.72 0.3 0 0.74 0.3 0 0.76 0.3 0 
0.78 0.3 0 0.8 0.3 0 0.82 0.3 0 
0.84 0.3 0 0.86 0.3 0 0.88 0.3 0 
0.9 0.3 0 0.92 0.3 0 0.94 0.3 0 
0.96 0.3 0 0.98 0.3 0 1 0.3 0 
0 0.32 0 0.02 0.32 0 0.04 0.32 0 
0.06 0.32 0 0.08 0.32 0 0.1 0.32 0 
0.12 0.32 0 0.14 0.32 0 0.16 0.32 0 
0.18 0.32 0 0.2 0.32 0 0.22 0.32 0 
0.24 0.32 0 0.26 0.32 0 0.28 0.32 0 
0.3 0.32 0 0.32 0.32 0 0.34 0.32 0 
0.36 0.32 0 0.38 0.32 0 0.4 0.32 0 
0.42 0.32 0 0.44 0.32 0 0.46 0.32 0 
0.48 0.32 0 0.5 0.32 0 0.52 0.32 0 
0.54 0.32 0 0.56 0.32 0 0.58 0.32 0 
[...]
CELL_DATA 2500
FIELD FieldData 1
pressure 1 2500 double
-0.0017962223783 -0.001849967351 -0.0019750763599 -0.0021393344157 -0.0023143434396 -0.0024786042245 -0.0026168705777 -0.0027187749004 -0.0027775642398 
-0.0027891026128 -0.002751121263 -0.0026626676177 -0.0025237083028 -0.0023348515455 -0.0020971625659 -0.0018120515399 -0.0014812178732 -0.0011066374115 
-0.00069058129558 -0.00023565672964 0.00025513892459 0.00077835834073 0.0013300454179 0.001905683134 0.0025001521084 0.0031077011166 0.003721885121 
0.0043355782816 0.0049413647823 0.0055314733053 0.0060979070627 0.0066326194 0.0071277258784 0.0075757450513 0.0079698594645 0.0083041872605 
0.0085740544065 0.008776256977 0.008909304015 0.0089736346011 0.0089718075247 0.0089086692101 0.0087915153442 0.0086302735559 0.0084377457133 
0.0082299477213 0.0080265347894 0.0078510678493 0.007730134195 0.0076879687099 -0.0017417744804 -0.0017958862244 -0.0019000389718 -0.0020320248803 
-0.0021716181882 -0.002302174473 -0.0024109331191 -0.0024885980751 -0.0025286999848 -0.0025269688217 -0.0024807975746 -0.0023888139674 -0.0022505537858 
-0.0020662222517 -0.0018365289653 -0.0015625829492 -0.0012458357601 -0.00088806205104 -0.00049136821312 -5.8220651126e-05 0.00040851384918 0.00090552248491 
0.0014290017527 0.0019746193804 0.0025374881791 0.0031121578168 0.0036925088612 0.0042717730355 0.0048430402836 0.0053990937818 0.0059325494533 
0.0064360259487 0.0069023436877 0.0073247477151 0.0076971468688 0.0080143608549 0.0082723658915 0.0084685285938 0.0086018195113 0.0086729994833 
0.0086847755647 0.0086419277259 0.0085514124968 0.0084224530598 0.0082666224473 0.0080979070116 0.0079326801373 0.0077893890871 0.0076875778263 
0.0076460117504 -0.001615523318 -0.0016919721891 -0.0017973014072 -0.0019173296245 -0.0020382977596 -0.0021480960001 -0.0022368461103 -0.0022969415005 
-0.0023228090548 -0.0023105716556 -0.0022577074988 -0.0021627500872 -0.0020250443492 -0.0018445606158 -0.0016217619539 -0.0013575178267 -0.0010530563331 
-0.00070994734275 -0.0003301091106 8.4168510156e-05 0.00053019063163 0.0010048197107 0.0015044394195 0.0020249254673 0.0025616289467 0.0031093786034 
0.0036623163675 0.0042139746338 0.0047578336062 0.0052870967534 0.0057948300612 0.0062741276621 0.0067183027097 0.0071210989223 0.0074769159162 
0.0077810406013 0.0080298746187 0.0082211475669 0.0083541067804 0.0084296753179 0.0084505722187 0.0084213916238 0.0083486393225 0.0082407248037 
0.008107900563 0.0079621234406 0.0078167806753 0.0076861832031 0.007584736369 0.0075259316804 -0.0014479089532 -0.0015593118187 -0.0016799970013 
-0.0018020531223 -0.0019168534802 -0.0020162061737 -0.0020930291992 -0.0021416001805 -0.0021575456894 -0.002137699117 -0.0020799111481 -0.0019828605427 
-0.0018458892771 -0.0016688717811 -0.0014521201434 -0.0011963229982 -0.0009025137735 -0.00057206307297 -0.00020668970199 0.00019151498854 0.00062005485035 
0.0010759938788 0.0015559234025 0.0020559365359 0.0025716150202 0.0030980339356 0.0036295490601 0.0041599357811 0.0046829554393 0.0051921039361 
0.0056807474686 0.0061422846473 0.0065703328245 0.0069589337554 0.0073027720137 0.00759739809 0.0078394450282 0.0080268280958 0.0081589164928 
0.0082366669584 0.00826271049 0.0082413851137 0.0081787085412 0.0080822835787 0.0079611244453 0.0078253822331 0.0076859334224 0.0075537843617 
0.0074392564723 0.0073509637788 -0.0012661244621 -0.0014176049943 -0.0015616941589 -0.0016948303206 -0.0018122576443 -0.0019089790385 -0.0019803920075 
-0.0020226027147 -0.002032524738 -0.0020078527658 -0.0019469762159 -0.0018488747043 -0.0017130195188 -0.0015392934198 -0.0013279335542 -0.0010794978705 
-0.00079485299693 -0.00047518014334 -0.00012199529318 0.00026282073197 0.00067698647778 0.0011177827873 0.0015820187565 0.0020660051887 0.0025655401504 
0.0030759111803 0.0035916496291 0.0041067028373 0.0046150158038 0.0051102599102 0.0055859654245 0.0060356816836 0.0064531621001 0.0068325687069 
0.0071686897119 0.0074571607095 0.0076946775022 0.0078791889804 0.0080100570323 0.0080881713612 0.0081160080172 0.0080976220943 0.0080385663212 
0.0079457275303 0.0078270713912 0.0076912818938 0.0075472767204 0.0074035753246 0.0072674939427 0.0071441237257 -0.0010913192645 -0.0012837142594 
-0.0014551207095 -0.0016047831968 -0.0017307397476 -0.0018304923769 -0.0019015215225 -0.001941578676 -0.0019488187129 -0.0019218308563 -0.0018596149221 
-0.0017615353783 -0.0016272737042 -0.0014567903639 -0.0012503016624 -0.0010082729517 -0.00073142712409 -0.00042076646886 -7.7604767121e-05 0.00029639344949 
0.00069917015561 0.0011282309526 0.0015806061138 0.0020528194188 0.0025408686822 0.0030402221348 0.003545553886 0.0040509011346 0.004550305628 
0.0050375085987 0.0055060811886 0.0059495846349 0.0063617570016 0.0067367209829 0.0070692059644 0.0073547732874 0.0075900320568 0.0077728320501 
0.0079024188019 0.007979536609 0.0080064664 0.007986987448 0.007926254382 0.0078305831634 0.0077071412546 0.0075635377221 0.0074073084727 
0.0072452899562 0.0070828686721 0.0069230739004 -0.00093943768317 -0.0011715052973 -0.0013716268447 -0.0015408009721 -0.0016790399615 -0.0017857569913 
-0.0018601286533 -0.0019013230368 -0.0019086212731 -0.0018814672904 -0.0018194767094 -0.0017224280253 -0.0015902512158 -0.0014230226325 -0.0012209705323 
-0.00098449235413 -0.00071418336549 -0.00041087493377 -7.5680192639e-05 0.00028995563381 0.00068420261112 0.001104795087 0.0015489848816 0.0020135022557 
0.002494528731 0.0029876854471 0.0034877627603 0.003988797625 0.0044848508423 0.0049696382496 0.0054366601031 0.0058793630272 0.006291331228 
0.0066665016219 0.0069993953209 0.0072853528518 0.0075207597281 0.0077032465744 0.0078318470479 0.0079070971413 0.0079310612353 0.0079072731251 
0.0078405841977 0.007736915338 0.0076029134697 0.00744551734 0.00727143949 0.0070865712571 0.0068953130377 0.0066998200031 -0.00082258978993 
-0.0010922673865 -0.0013211047218 -0.0015111983498 -0.0016639600554 -0.0017802594989 -0.0018606370815 -0.0019054521929 -0.0019149717289 -0.0018894161155 
-0.0018289812164 -0.0017338507759 -0.001604209475 -0.0014402624756 -0.0012422639813 -0.0010105554046 -0.00074561242025 -0.00044809921454 -0.00011892800599 
0.00024067775485 0.00062912045536 0.0010443663413 0.0014838885539 0.0019446185346 0.0024229088433 0.0029145112942 0.0034143160277 0.0039162628026 
0.0044143627336 0.0049022205963 0.0053731636824 0.0058204069808 0.006237251401 0.0066173099857 0.0069547534456 0.0072445613421 0.0074827643549 
0.0076666594242 0.0077949789576 0.0078679954872 0.0078875455533 0.0078569605367 0.0077808976749 0.0076650709998 0.0075158886102 0.0073400085917 
0.0071438299012 0.0069329352928 0.0067114995105 0.006481667325 -0.00075020667424 -0.0010552727136 -0.0013121390093 -0.0015236131635 -0.0016921256936 
-0.0018196725618 -0.0019078944914 -0.0019581450491 -0.0019715379225 -0.00194897796 -0.0018911843851 -0.0017987141926 -0.0016719911648 -0.0015113433547 
-0.0013170499183 -0.0010893968293 -0.00082874014158 -0.00053557510389 -0.00021061005317 0.00014515906285 0.00053037219335 0.00094323210402 0.001381436016 
0.0018421149063 0.0023217847165 0.002816313084 0.0033206906673 0.0038286556338 0.0043341098153 0.0048304701773 0.0053107973063 0.0057679647953 
0.0061948665463 0.0065846573978 0.0069310172316 0.0072284243644 0.0074724218739 0.0076598563527 0.0077890677704 0.0078600094422 0.0078742799704 
0.0078350541516 0.0077469069002 0.007615532684 0.0074473715694 0.0072491604838 0.0070274331086 0.0067879924237 0.00653537547 0.0062723209246 
-0.00072988787279 -0.0010682909952 -0.0013522398202 -0.0015850359485 -0.0017698874976 -0.0019096885066 -0.0020069828878 -0.0020639586594 -0.0020824533903 
-0.0020639657096 -0.0020096741079 -0.0019204652321 -0.0017969732638 -0.0016396307111 -0.0014487296083 -0.0012244918103 -0.00096714632513 -0.00067701274015 
-0.00035458640303 -6.2781711803e-07 0.00038375014018 0.00079699588173 0.0012370376297 0.0017012102359 0.0021861932179 0.0026879643269 0.0032016411839 
0.0037206468889 0.0042387251184 0.004749037536 0.005244291878 0.005716916037 0.0061592759775 0.0065639336096 0.00692393396 0.0072331072324 
0.0074863671829 0.0076799830152 0.0078118004519 0.0078813880982 0.0078900884112 0.0078409587873 0.0077385969079 0.0075888547116 0.0073984558222 
0.0071745399868 0.0069241632888 0.0066537830268 0.0063687504311 0.0060728239589 -0.00076799919665 -0.0011380091437 -0.0014480825241 -0.0017019014492 
-0.0019033062351 -0.0020559383005 -0.0021631044988 -0.0022277055215 -0.0022522018999 -0.0022386056562 -0.0021884923905 -0.0021030315043 -0.0019830328789 
-0.0018290077157 -0.0016412414665 -0.001419876201 -0.0011650008976 -0.00087674548908 -0.00055538030755 -0.00020141552173 0.00018429751518 0.00060046744573 
0.001045268329 0.001516251561 0.0020102689976 0.0025234128966 0.003050990986 0.0035859897555 0.0041219584979 0.0046517455705 0.0051676271279 
0.0056614857028 0.0061250392904 0.0065501184974 0.0069289810333 0.007254649014 0.0075212482041 0.0077243238697 0.0078611052529 0.0079306909719 
0.0079341310937 0.0078743887584 0.0077561743952 0.0075856577109 0.0073700748408 0.0071172582551 0.006835122839 0.0065311412767 0.0062118352269 
0.0058822973287 -0.00087009273081 -0.0012703574332 -0.0016057231859 -0.0018802018086 -0.0020981844678 -0.0022639660986 -0.002381522251 -0.002454378539 
-0.0024855409483 -0.0024774687993 -0.0024320799968 -0.0023507822749 -0.0022345254455 -0.0020838706703 -0.001899073088 -0.0016801751097 -0.0014271064703 
-0.0011397902366 -0.00081825219006 -0.00046273302403 -7.3801128154e-05 0.000347535932 0.00079972154972 0.0012805459996 0.0017870529581 0.0023154636449 
0.0028613836377 0.003417245636 0.003976379857 0.0045312723954 0.0050736977196 0.0055948990126 0.0060858267634 0.0065374358676 0.0069410312886 
0.0072886474513 0.0075734382141 0.0077900490142 0.0079349388736 0.0080066196271 0.0080057831388 0.0079352950728 0.0078000454689 0.0076066605525 
0.0073630948606 0.0070781349123 0.0067608527233 0.006420047677 0.0060637082781 0.0056985133672 -0.0010412046446 -0.0014707583843 -0.0018307806427 
-0.0021256002648 -0.0023601206538 -0.0025392376324 -0.0026675370363 -0.0027491108198 -0.0027874549941 -0.0027854257475 -0.0027452388238 -0.0026685016985 
-0.0025562709955 -0.0024091291583 -0.0022272761021 -0.0020106313729 -0.0017589435221 -0.0014719060314 -0.0011492765679 -0.00079100017556 -0.00039733207259 
3.1035908124e-05 0.00049285093306 0.00098617832819 0.001508286769 0.0020555466966 0.0026239964381 0.0032054687685 0.0037930369998 0.0043787832603 
0.0049539230708 0.0055089753354 0.0060340052383 0.0065189406291 0.0069539521616 0.0073298815694 0.007638692961 0.0078739153395 0.0080310390095 
0.0081078267006 0.0081045031606 0.0080237951291 0.0078708069178 0.0076527336352 0.0073784316719 0.0070578814078 0.0067015867164 0.0063199574996 
0.0059227151106 0.0055183486114 -0.0012860690306 -0.0017443157511 -0.0021285856649 -0.0024435355053 -0.0026945713069 -0.0028871669985 -0.0030264881933 
-0.0031171588653 -0.0031631295104 -0.0031676184363 -0.0031331062405 -0.003061369519 -0.0029535433995 -0.0028102057793 -0.0026314769891 -0.0024171296223 
-0.0021667069602 -0.0018796467365 -0.0015554104182 -0.0011936129057 -0.0007941599127 -0.00035738488802 0.00011581211183 0.00062382555858 0.0011642056792 
0.0017335073309 0.0023281986535 0.0029398568814 0.0035610779108 0.0041835178005 0.0047978021362 0.0053936573491 0.0059601516566 0.0064860292472 
0.0069601269833 0.0073718578946 0.0077117352866 0.0079719020097 0.008146621418 0.008232682631 0.0082296742547 0.0081400889816 0.007969236185 
0.0077249594798 0.007417178306 0.0070572925759 0.0066575033723 0.0062301075129 0.0057868188559 0.0053381572428 -0.0016092731145 -0.0020959579853 
-0.0025043011291 -0.0028393129965 -0.0031069127406 -0.00331315176 -0.0034637668682 -0.003563899861 -0.0036179380168 -0.003629441806 -0.0036011355364 
-0.0035349432321 -0.0034320571778 -0.0032930293871 -0.0031178784434 -0.0029062071012 -0.0026573281862 -0.0023703962785 -0.0020445415611 -0.0016790119975 
-0.0012733176057 -0.00082737973661 -0.00034168302872 0.00018257172685 0.00074332048403 0.0013375133275 0.0019610864728 0.0026074038794 0.0032673578617 
0.0039323413043 0.00459241634 0.0052364758906 0.0058524918927 0.0064278662955 0.0069498848347 0.0074062611572 0.0077857453568 0.0080787580386 
0.0082779998311 0.0083789786661 0.0083803963088 0.0082843427572 0.0080962633934 0.0078246874741 0.0074807343585 0.0070774410359 0.00662897525 
0.0061498085443 0.0056539213535 0.0051540999659 -0.002015370527 -0.0025305472061 -0.0029630180036 -0.0033181825455 -0.0036024980942 -0.0038226098846 
-0.0039848349421 -0.0040948359918 -0.0041574351217 -0.0041765288572 -0.004155075918 -0.0040951363434 -0.0039979460574 -0.0038640155178 -0.0036932437422 
-0.0034850434749 -0.0032384734499 -0.0029523742125 -0.0026255104421 -0.0022567189957 -0.001845061347 -0.0013899830959 -0.00089148016757 -0.00035026841738 
0.00023204855663 0.00085282064413 0.0015082017508 0.0021927396151 0.0028960610444 0.0036092730444 0.004321892154 0.0050219581419 0.0056962657089 
0.0063307211845 0.0069108285023 0.0074222958385 0.007851738883 0.0081874395262 0.0084201023632 0.0085435389516 0.0085552045777 0.0084565175415 
0.0082529077075 0.0079535691788 0.0075709277191 0.0071198706713 0.0066168183715 0.0060787343999 0.0055221739644 0.004962456835 -0.002508963827 
-0.0030529620685 -0.003509831685 -0.0038854032201 -0.004186707873 -0.0044210146153 -0.004595244766 -0.004715599973 -0.0047873494704 -0.0048147331838 
-0.0048009473102 -0.0047481867685 -0.004657726387 -0.0045300268965 -0.0043648563227 -0.0041614215876 -0.0039185051708 -0.0036346056922 -0.0033080861733 
-0.0029373247196 -0.0025208744327 -0.0020576327641 -0.0015470204786 -0.00098916881889 -0.00038511220616 0.00026302278248 0.0009518506862 0.0016775164013 
0.0024282398528 0.0031949948831 0.0039668417521 0.0047309961578 0.0054730311795 0.0061772239084 0.0068270621184 0.0074059104935 0.0078978165936 
0.0082884142647 0.0085658596517 0.0087217155302 0.0087516878234 0.0086561186448 0.0084401566975 0.0081135584915 0.0076901195755 0.0071867863215 
0.006622545116 0.0060172170193 0.0053902950224 0.0047599474219 -0.0030947642504 -0.0036681610458 -0.0041499032237 -0.004546297601 -0.0048649936094 
-0.0051139256033 -0.0053006561153 -0.005431957534 -0.0055135724831 -0.0055501049838 -0.0055450037429 -0.005500608696 -0.0054182391995 -0.005298307244 
-0.0051404459675 -0.0049436469986 -0.0047063996654 -0.0044268371971 -0.0041028846278 -0.0037324126311 -0.003313402573 -0.0028441222565 -0.0023233156782 
-0.0017504093467 -0.0011257326034 -0.00045075078165 0.00027169245765 0.0010402960955 0.001841496396 0.0026664202487 0.0035038310786 0.0043402166103 
0.0051599428396 0.0059455646496 0.0066783331497 0.0073389108653 0.0079082826705 0.0083688223485 0.0087054442446 0.008906739947 0.0089659782368 
0.0088818392361 0.0086587668044 0.0083068599977 0.0078412821792 0.0072812364615 0.006648624745 0.0059665584621 0.005257909753 0.0045440782364 
-0.0037776347203 -0.0043812317825 -0.004888509328 -0.0053062977532 -0.0056429160533 -0.0059070152815 -0.0061068487898 -0.0062498049214 -0.0063421396562 
-0.0063888550072 -0.006393680342 -0.0063591232726 -0.006286564748 -0.0061763795124 -0.0060280724298 -0.0058404183074 -0.0056116060581 -0.0053393848671 
-0.0050212100106 -0.0046543995386 -0.0042362973354 -0.0037644526895 -0.0032368188835 -0.0026519735505 -0.0020093665939 -0.0013095940226 -0.00055468687261 
0.00025649488893 0.001109766237 0.0019963703003 0.0029049402863 0.0038214164796 0.00472906193 0.0056086885705 0.0064391317264 0.0071979928201 
0.0078626489858 0.0084114964938 0.0088253548977 0.0090889169133 0.0091920924253 0.0091310746605 0.0089089620591 0.0085358076345 0.0080280388268 
0.0074072857191 0.0066987552199 0.0059293695341 0.0051259273563 0.0043135350945 -0.0045626215847 -0.0051974310498 -0.0057310857849 -0.0061709868967 
-0.006526179095 -0.0068060918816 -0.0070197308896 -0.007175159448 -0.0072792009294 -0.0073373037634 -0.0073535203021 -0.0073305622174 -0.0072699019846 
-0.0071719023445 -0.0070359574069 -0.0068606370207 -0.0066438328091 -0.006382900022 -0.0060748041987 -0.0057162692449 -0.0053039392457 -0.0048345551932 
-0.0043051552313 -0.0037133064252 -0.0030573704127 -0.0023368213331 -0.0015526887248 -0.00070203383837 0.00020321794853 0.0011534481566 0.0021375125335 
0.0031411584126 0.0041467918568 0.0051335746187 0.0060778265886 0.0069537620384 0.0077345781762 0.0083938786828 0.0089073640869 0.0092546619884 
0.0094211135284 0.0093992912762 0.0091900141128 0.0088026594281 0.0082546571741 0.0075701757245 0.0067781524297 0.0059099474093 0.0049969717708 
0.0040686386821 -0.005454979367 -0.006122221364 -0.0066832693336 -0.0071461393671 -0.0075206636875 -0.0078171206996 -0.0080453430501 -0.0082141424518 
-0.0083309795327 -0.00840181337 -0.0084310776417 -0.0084217394279 -0.0083754088559 -0.0082924759798 -0.0081722576335 -0.0080131453217 -0.0078127495833 
-0.0075680399102 -0.0072754813445 -0.0069311765621 -0.0065310158776 -0.0060708459379 -0.0055466672519 -0.0049548620079 -0.0042924593421 -0.0035574225024 
-0.002748868656 -0.0018668189933 -0.00091130202373 0.00010230246641 0.0011642278178 0.0022606592209 0.0033735732423 0.0044807307155 0.0055559642496 
0.006569855685 0.0074908630757 0.008286909754 0.0089273839019 0.0093854176748 0.0096402307675 0.0096792521231 0.0094996972156 0.0091092999168 
0.0085259909732 0.0077764758645 0.0068938658089 0.005914707865 0.0048758862826 0.0038118852773 -0.0064601953159 -0.0071613092852 -0.0077509423221 
-0.0082377660469 -0.0086324647279 -0.008946246845 -0.0091898603388 -0.0093729556477 -0.0095037181353 -0.0095887001594 -0.0096327925682 -0.0096392876575 
-0.0096099964265 -0.0095453936602 -0.0094447699345 -0.0093063825462 -0.0091275981116 -0.0089050238119 -0.0086346354343 -0.0083119032955 -0.0079319257987 
-0.0074895852442 -0.0069797286804 -0.0063973931774 -0.0057380802274 -0.0049980865441 -0.0041748990119 -0.0032677113096 -0.0022687260606 -0.0011955931446 
-5.6373729259e-05 0.0011361209984 0.0023640062725 0.003604083199 0.0048279114449 0.0060023405695 0.0070906043662 0.0080540333596 0.0088543655566 
0.00945653446 0.0098316951488 0.0099601351806 0.0098336385848 0.0094568631117 0.0088473820367 0.0080342390641 0.0070551404125 0.0059526964603 
0.0047703386136 0.0035485988821 -0.0075840185946 -0.0083206922589 -0.0089402893801 -0.00945216962 -0.0098679375849 -0.010199823365 -0.010459595329 
-0.010657852291 -0.010803613005 -0.010904126678 -0.010964838499 -0.010989456075 -0.010980075058 -0.010937332135 -0.01086056326 -0.010747958246 
-0.010596696802 -0.010403073074 -0.010162607429 -0.0098701504363 -0.0095199966552 -0.0091060104386 -0.0086217876586 -0.0080608616298 -0.0074169805787 
-0.0066844735738 -0.0058587446348 -0.0049369996391 -0.0039058512031 -0.0027810784309 -0.0015688704965 -0.00028032863166 0.0010676084927 0.0024514906357 
0.0038410820126 0.0051996294549 0.0064848181451 0.0076505268708 0.0086494170553 0.0094362670041 0.0099718047226 0.010226622305 0.010184612132 
0.0098453023552 0.0092245373042 0.0083531754071 0.0072738428104 0.0060362036868 0.0046915593377 0.0032877333557 -0.0088325027628 -0.0096067233524 
-0.010257872303 -0.010796019355 -0.011233760082 -0.011584451026 -0.011861005962 -0.01207510578 -0.012236736649 -0.012353973784 -0.012432938661 
-0.012477868175 -0.01249124923 -0.012473979959 -0.012425537874 -0.012344133816 -0.01222684484 -0.01206972821 -0.011867910146 -0.01161566781 
-0.011306506785 -0.010933253445 -0.010488174764 -0.0099631578844 -0.0093499597011 -0.0086405627358 -0.0078276754635 -0.0069054481163 -0.0058598965439 
-0.0046954914373 -0.0034190874985 -0.0020388419738 -0.00056955296337 0.00096613785688 0.0025370239735 0.0041032072966 0.0056167709096 0.0070234473472 
0.0082654019155 0.0092851087657 0.010030095049 0.010458088041 0.010541868014 0.010272976835 0.00966344101 0.0087449020298 0.0075650104057 
0.0061815439783 0.0046552696118 0.0030428743561 -0.010212070993 -0.011026203693 -0.011710735759 -0.012276454559 -0.012737020013 -0.013107036554 