# vtk DataFile Version 4.1
vtk output
ASCII
DATASET STRUCTURED_GRID
DIMENSIONS 51 51 1
POINTS 2601 float
0 0 0 0.02 0 0 0.04 0 0 
0.06 0 0 0.08 0 0 0.1 0 0 
0.12 0 0 0.14 0 0 0.16 0 0 
0.18 0 0 0.2 0 0 0.22 0 0 
0.24 0 0 0.26 0 0 0.28 0 0 
0.3 0 0 0.32 0 0 0.34 0 0 
0.36 0 0 0.38 0 0 0.4 0 0 
0.42 0 0 0.44 0 0 0.46 0 0 
0.48 0 0 0.5 0 0 0.52 0 0 
0.54 0 0 0.56 0 0 0.58 0 0 
0.6 0 0 0.62 0 0 0.64 0 0 
0.66 0 0 0.68 0 0 0.7 0 0 
0.72 0 0 0.74 0 0 0.76 0 0 
0.78 0 0 0.8 0 0 0.82 0 0 
0.84 0 0 0.86 0 0 0.88 0 0 
0.9 0 0 0.92 0 0 0.94 0 0 
0.96 0 0 0.98 0 0 1 0 0 
0 0.02 0 0.02 0.02 0 0.04 0.02 0 
0.06 0.02 0 0.08 0.02 0 0.1 0.02 0 
0.12 0.02 0 0.14 0.02 0 0.16 0.02 0 
0.18 0.02 0 0.2 0.02 0 0.22 0.02 0 
0.24 0.02 0 0.26 0.02 0 0.28 0.02 0 
0.3 0.02 0 0.32 0.02 0 0.34 0.02 0 
0.36 0.02 0 0.38 0.02 0 0.4 0.02 0 
0.42 0.02 0 0.44 0.02 0 0.46 0.02 0 
0.48 0.02 0 0.5 0.02 0 0.52 0.02 0 
0.54 0.02 0 0.56 0.02 0 0.58 0.02 0 
0.6 0.02 0 0.62 0.02 0 0.64 0.02 0 
0.66 0.02 0 0.68 0.02 0 0.7 0.02 0 
0.72 0.02 0 0.74 0.02 0 0.76 0.02 0 
0.78 0.02 0 0.8 0.02 0 0.82 0.02 0 
0.84 0.02 0 0.86 0.02 0 0.88 0.02 0 
0.9 0.02 0 0.92 0.02 0 0.94 0.02 0 
0.96 0.02 0 0.98 0.02 0 1 0.02 0 
0 0.04 0 0.02 0.04 0 0.04 0.04 0 
0.06 0.04 0 0.08 0.04 0 0.1 0.04 0 
0.12 0.04 0 0.14 0.04 0 0.16 0.04 0 
0.18 0.04 0 0.2 0.04 0 0.22 0.04 0 
0.24 0.04 0 0.26 0.04 0 0.28 0.04 0 
0.3 0.04 0 0.32 0.04 0 0.34 0.04 0 
0.36 0.04 0 0.38 0.04 0 0.4 0.04 0 
0.42 0.04 0 0.44 0.04 0 0.46 0.04 0 
0.48 0.04 0 0.5 0.04 0 0.52 0.04 0 
0.54 0.04 0 0.56 0.04 0 0.58 0.04 0 
0.6 0.04 0 0.62 0.04 0 0.64 0.04 0 
0.66 0.04 0 0.68 0.04 0 0.7 0.04 0 
0.72 0.04 0 0.74 0.04 0 0.76 0.04 0 
0.78 0.04 0 0.8 0.04 0 0.82 0.04 0 
0.84 0.04 0 0.86 0.04 0 0.88 0.04 0 
0.9 0.04 0 0.92 0.04 0 0.94 0.04 0 
0.96 0.04 0 0.98 0.04 0 1 0.04 0 
0 0.06 0 0.02 0.06 0 0.04 0.06 0 
0.06 0.06 0 0.08 0.06 0 0.1 0.06 0 
0.12 0.06 0 0.14 0.06 0 0.16 0.06 0 
0.18 0.06 0 0.2 0.06 0 0.22 0.06 0 
0.24 0.06 0 0.26 0.06 0 0.28 0.06 0 
0.3 0.06 0 0.32 0.06 0 0.34 0.06 0 
0.36 0.06 0 0.38 0.06 0 0.4 0.06 0 
0.42 0.06 0 0.44 0.06 0 0.46 0.06 0 
0.48 0.06 0 0.5 0.06 0 0.52 0.06 0 
0.54 0.06 0 0.56 0.06 0 0.58 0.06 0 
0.6 0.06 0 0.62 0.06 0 0.64 0.06 0 
0.66 0.06 0 0.68 0.06 0 0.7 0.06 0 
0.72 0.06 0 0.74 0.06 0 0.76 0.06 0 
0.78 0.06 0 0.8 0.06 0 0.82 0.06 0 
0.84 0.06 0 0.86 0.06 0 0.88 0.06 0 
0.9 0.06 0 0.92 0.06 0 0.94 0.06 0 
0.96 0.06 0 0.98 0.06 0 1 0.06 0 
0 0.08 0 0.02 0.08 0 0.04 0.08 0 
0.06 0.08 0 0.08 0.08 0 0.1 0.08 0 
0.12 0.08 0 0.14 0.08 0 0.16 0.08 0 
0.18 0.08 0 0.2 0.08 0 0.22 0.08 0 
0.24 0.08 0 0.26 0.08 0 0.28 0.08 0 
0.3 0.08 0 0.32 0.08 0 0.34 0.08 0 
0.36 0.08 0 0.38 0.08 0 0.4 0.08 0 
0.42 0.08 0 0.44 0.08 0 0.46 0.08 0 
0.48 0.08 0 0.5 0.08 0 0.52 0.08 0 
0.54 0.08 0 0.56 0.08 0 0.58 0.08 0 
0.6 0.08 0 0.62 0.08 0 0.64 0.08 0 
0.66 0.08 0 0.68 0.08 0 0.7 0.08 0 
0.72 0.08 0 0.74 0.08 0 0.76 0.08 0 
0.78 0.08 0 0.8 0.08 0 0.82 0.08 0 
0.84 0.08 0 0.86 0.08 0 0.88 0.08 0 
0.9 0.08 0 0.92 0.08 0 0.94 0.08 0 
0.96 0.08 0 0.98 0.08 0 1 0.08 0 
0 0.1 0 0.02 0.1 0 0.04 0.1 0 
0.06 0.1 0 0.08 0.1 0 0.1 0.1 0 
0.12 0.1 0 0.14 0.1 0 0.16 0.1 0 
0.18 0.1 0 0.2 0.1 0 0.22 0.1 0 
0.24 0.1 0 0.26 0.1 0 0.28 0.1 0 
0.3 0.1 0 0.32 0.1 0 0.34 0.1 0 
0.36 0.1 0 0.38 0.1 0 0.4 0.1 0 
0.42 0.1 0 0.44 0.1 0 0.46 0.1 0 
0.48 0.1 0 0.5 0.1 0 0.52 0.1 0 
0.54 0.1 0 0.56 0.1 0 0.58 0.1 0 
0.6 0.1 0 0.62 0.1 0 0.64 0.1 0 
0.66 0.1 0 0.68 0.1 0 0.7 0.1 0 
0.72 0.1 0 0.74 0.1 0 0.76 0.1 0 
0.78 0.1 0 0.8 0.1 0 0.82 0.1 0 
0.84 0.1 0 0.86 0.1 0 0.88 0.1 0 
0.9 0.1 0 0.92 0.1 0 0.94 0.1 0 
0.96 0.1 0 0.98 0.1 0 1 0.1 0 
0 0.12 0 0.02 0.12 0 0.04 0.12 0 
0.06 0.12 0 0.08 0.12 0 0.1 0.12 0 
0.12 0.12 0 0.14 0.12 0 0.16 0.12 0 
0.18 0.12 0 0.2 0.12 0 0.22 0.12 0 
0.24 0.12 0 0.26 0.12 0 0.28 0.12 0 
0.3 0.12 0 0.32 0.12 0 0.34 0.12 0 
0.36 0.12 0 0.38 0.12 0 0.4 0.12 0 
0.42 0.12 0 0.44 0.12 0 0.46 0.12 0 
0.48 0.12 0 0.5 0.12 0 0.52 0.12 0 
0.54 0.12 0 0.56 0.12 0 0.58 0.12 0 
0.6 0.12 0 0.62 0.12 0 0.64 0.12 0 
0.66 0.12 0 0.68 0.12 0 0.7 0.12 0 
0.72 0.12 0 0.74 0.12 0 0.76 0.12 0 
0.78 0.12 0 0.8 0.12 0 0.82 0.12 0 
0.84 0.12 0 0.86 0.12 0 0.88 0.12 0 
0.9 0.12 0 0.92 0.12 0 0.94 0.12 0 
0.96 0.12 0 0.98 0.12 0 1 0.12 0 
0 0.14 0 0.02 0.14 0 0.04 0.14 0 
0.06 0.14 0 0.08 0.14 0 0.1 0.14 0 
0.12 0.14 0 0.14 0.14 0 0.16 0.14 0 
0.18 0.14 0 0.2 0.14 0 0.22 0.14 0 
0.24 0.14 0 0.26 0.14 0 0.28 0.14 0 
0.3 0.14 0 0.32 0.14 0 0.34 0.14 0 
0.36 0.14 0 0.38 0.14 0 0.4 0.14 0 
0.42 0.14 0 0.44 0.14 0 0.46 0.14 0 
0.48 0.14 0 0.5 0.14 0 0.52 0.14 0 
0.54 0.14 0 0.56 0.14 0 0.58 0.14 0 
0.6 0.14 0 0.62 0.14 0 0.64 0.14 0 
0.66 0.14 0 0.68 0.14 0 0.7 0.14 0 
0.72 0.14 0 0.74 0.14 0 0.76 0.14 0 
0.78 0.14 0 0.8 0.14 0 0.82 0.14 0 
0.84 0.14 0 0.86 0.14 0 0.88 0.14 0 
0.9 0.14 0 0.92 0.14 0 0.94 0.14 0 
0.96 0.14 0 0.98 0.14 0 1 0.14 0 
0 0.16 0 0.02 0.16 0 0.04 0.16 0 
0.06 0.16 0 0.08 0.16 0 0.1 0.16 0 
0.12 0.16 0 0.14 0.16 0 0.16 0.16 0 
0.18 0.16 0 0.2 0.16 0 0.22 0.16 0 
0.24 0.16 0 0.26 0.16 0 0.28 0.16 0 
0.3 0.16 0 0.32 0.16 0 0.34 0.16 0 
0.36 0.16 0 0.38 0.16 0 0.4 0.16 0 
0.42 0.16 0 0.44 0.16 0 0.46 0.16 0 
0.48 0.16 0 0.5 0.16 0 0.52 0.16 0 
0.54 0.16 0 0.56 0.16 0 0.58 0.16 0 
0.6 0.16 0 0.62 0.16 0 0.64 0.16 0 
0.66 0.16 0 0.68 0.16 0 0.7 0.16 0 
0.72 0.16 0 0.74 0.16 0 0.76 0.16 0 
0.78 0.16 0 0.8 0.16 0 0.82 0.16 0 
0.84 0.16 0 0.86 0.16 0 0.88 0.16 0 
0.9 0.16 0 0.92 0.16 0 0.94 0.16 0 
0.96 0.16 0 0.98 0.16 0 1 0.16 0 
0 0.18 0 0.02 0.18 0 0.04 0.18 0 
0.06 0.18 0 0.08 0.18 0 0.1 0.18 0 
0.12 0.18 0 0.14 0.18 0 0.16 0.18 0 
0.18 0.18 0 0.2 0.18 0 0.22 0.18 0 
0.24 0.18 0 0.26 0.18 0 0.28 0.18 0 
0.3 0.18 0 0.32 0.18 0 0.34 0.18 0 
0.36 0.18 0 0.38 0.18 0 0.4 0.18 0 
0.42 0.18 0 0.44 0.18 0 0.46 0.18 0 
0.48 0.18 0 0.5 0.18 0 0.52 0.18 0 
0.54 0.18 0 0.56 0.18 0 0.58 0.18 0 
0.6 0.18 0 0.62 0.18 0 0.64 0.18 0 
0.66 0.18 0 0.68 0.18 0 0.7 0.18 0 
0.72 0.18 0 0.74 0.18 0 0.76 0.18 0 
0.78 0.18 0 0.8 0.18 0 0.82 0.18 0 
0.84 0.18 0 0.86 0.18 0 0.88 0.18 0 
0.9 0.18 0 0.92 0.18 0 0.94 0.18 0 
0.96 0.18 0 0.98 0.18 0 1 0.18 0 
0 0.2 0 0.02 0.2 0 0.04 0.2 0 
0.06 0.2 0 0.08 0.2 0 0.1 0.2 0 
0.12 0.2 0 0.14 0.2 0 0.16 0.2 0 
0.18 0.2 0 0.2 0.2 0 0.22 0.2 0 
0.24 0.2 0 0.26 0.2 0 0.28 0.2 0 
0.3 0.2 0 0.32 0.2 0 0.34 0.2 0 
0.36 0.2 0 0.38 0.2 0 0.4 0.2 0 
0.42 0.2 0 0.44 0.2 0 0.46 0.2 0 
0.48 0.2 0 0.5 0.2 0 0.52 0.2 0 
0.54 0.2 0 0.56 0.2 0 0.58 0.2 0 
0.6 0.2 0 0.62 0.2 0 0.64 0.2 0 
0.66 0.2 0 0.68 0.2 0 0.7 0.2 0 
0.72 0.2 0 0.74 0.2 0 0.76 0.2 0 
0.78 0.2 0 0.8 0.2 0 0.82 0.2 0 
0.84 0.2 0 0.86 0.2 0 0.88 0.2 0 
0.9 0.2 0 0.92 0.2 0 0.94 0.2 0 
0.96 0.2 0 0.98 0.2 0 1 0.2 0 
0 0.22 0 0.02 0.22 0 0.04 0.22 0 
0.06 0.22 0 0.08 0.22 0 0.1 0.22 0 
0.12 0.22 0 0.14 0.22 0 0.16 0.22 0 
0.18 0.22 0 0.2 0.22 0 0.22 0.22 0 
0.24 0.22 0 0.26 0.22 0 0.28 0.22 0 
0.3 0.22 0 0.32 0.22 0 0.34 0.22 0 
0.36 0.22 0 0.38 0.22 0 0.4 0.22 0 
0.42 0.22 0 0.44 0.22 0 0.46 0.22 0 
0.48 0.22 0 0.5 0.22 0 0.52 0.22 0 
0.54 0.22 0 0.56 0.22 0 0.58 0.22 0 
0.6 0.22 0 0.62 0.22 0 0.64 0.22 0 
0.66 0.22 0 0.68 0.22 0 0.7 0.22 0 
0.72 0.22 0 0.74 0.22 0 0.76 0.22 0 
0.78 0.22 0 0.8 0.22 0 0.82 0.22 0 
0.84 0.22 0 0.86 0.22 0 0.88 0.22 0 
0.9 0.22 0 0.92 0.22 0 0.94 0.22 0 
0.96 0.22 0 0.98 0.22 0 1 0.22 0 
0 0.24 0 0.02 0.24 0 0.04 0.24 0 
0.06 0.24 0 0.08 0.24 0 0.1 0.24 0 
0.12 0.24 0 0.14 0.24 0 0.16 0.24 0 
0.18 0.24 0 0.2 0.24 0 0.22 0.24 0 
0.24 0.24 0 0.26 0.24 0 0.28 0.24 0 
0.3 0.24 0 0.32 0.24 0 0.34 0.24 0 
0.36 0.24 0 0.38 0.24 0 0.4 0.24 0 
0.42 0.24 0 0.44 0.24 0 0.46 0.24 0 
0.48 0.24 0 0.5 0.24 0 0.52 0.24 0 
0.54 0.24 0 0.56 0.24 0 0.58 0.24 0 
0.6 0.24 0 0.62 0.24 0 0.64 0.24 0 
0.66 0.24 0 0.68 0.24 0 0.7 0.24 0 
0.72 0.24 0 0.74 0.24 0 0.76 0.24 0 
0.78 0.24 0 0.8 0.24 0 0.82 0.24 0 
0.84 0.24 0 0.86 0.24 0 0.88 0.24 0 
0.9 0.24 0 0.92 0.24 0 0.94 0.24 0 
0.96 0.24 0 0.98 0.24 0 1 0.24 0 
0 0.26 0 0.02 0.26 0 0.04 0.26 0 
0.06 0.26 0 0.08 0.26 0 0.1 0.26 0 
0.12 0.26 0 0.14 0.26 0 0.16 0.26 0 
0.18 0.26 0 0.2 0.26 0 0.22 0.26 0 
0.24 0.26 0 0.26 0.26 0 0.28 0.26 0 
0.3 0.26 0 0.32 0.26 0 0.34 0.26 0 
0.36 0.26 0 0.38 0.26 0 0.4 0.26 0 
0.42 0.26 0 0.44 0.26 0 0.46 0.26 0 
0.48 0.26 0 0.5 0.26 0 0.52 0.26 0 
0.54 0.26 0 0.56 0.26 0 0.58 0.26 0 
0.6 0.26 0 0.62 0.26 0 0.64 0.26 0 
0.66 0.26 0 0.68 0.26 0 0.7 0.26 0 
0.72 0.26 0 0.74 0.26 0 0.76 0.26 0 
0.78 0.26 0 0.8 0.26 0 0.82 0.26 0 
0.84 0.26 0 0.86 0.26 0 0.88 0.26 0 
0.9 0.26 0 0.92 0.26 0 0.94 0.26 0 
0.96 0.26 0 0.98 0.26 0 1 0.26 0 
0 0.28 0 0.02 0.28 0 0.04 0.28 0 
0.06 0.28 0 0.08 0.28 0 0.1 0.28 0 
0.12 0.28 0 0.14 0.28 0 0.16 0.28 0 
0.18 0.28 0 0.2 0.28 0 0.22 0.28 0 
0.24 0.28 0 0.26 0.28 0 0.28 0.28 0 
0.3 0.28 0 0.32 0.28 0 0.34 0.28 0 
0.36 0.28 0 0.38 0.28 0 0.4 0.28 0 
0.42 0.28 0 0.44 0.28 0 0.46 0.28 0 
0.48 0.28 0 0.5 0.28 0 0.52 0.28 0 
0.54 0.28 0 0.56 0.28 0 0.58 0.28 0 
0.6 0.28 0 0.62 0.28 0 0.64 0.28 0 
0.66 0.28 0 0.68 0.28 0 0.7 0.28 0 
0.72 0.28 0 0.74 0.28 0 0.76 0.28 0 
0.78 0.28 0 0.8 0.28 0 0.82 0.28 0 
0.84 0.28 0 0.86 0.28 0 0.88 0.28 0 
0.9 0.28 0 0.92 0.28 0 0.94 0.28 0 
0.96 0.28 0 0.98 0.28 0 1 0.28 0 
0 0.3 0 0.02 0.3 0 0.04 0.3 0 
0.06 0.3 0 0.08 0.3 0 0.1 0.3 0 
0.12 0.3 0 0.14 0.3 0 0.16 0.3 0 
0.18 0.3 0 0.2 0.3 0 0.22 0.3 0 
0.24 0.3 0 0.26 0.3 0 0.28 0.3 0 
0.3 0.3 0 0.32 0.3 0 0.34 0.3 0 
0.36 0.3 0 0.38 0.3 0 0.4 0.3 0 
0.42 0.3 0 0.44 0.3 0 0.46 0.3 0 
0.48 0.3 0 0.5 0.3 0 0.52 0.3 0 
0.54 0.3 0 0.56 0.3 0 0.58 0.3 0 
0.6 0.3 0 0.62 0.3 0 0.64 0.3 0 
0.66 0.3 0 0.68 0.3 0 0.7 0.3 0 
0.72 0.3 0 0.74 0.3 0 0.76 0.3 0 
0.78 0.3 0 0.8 0.3 0 0.82 0.3 0 
0.84 0.3 0 0.86 0.3 0 0.88 0.3 0 
0.9 0.3 0 0.92 0.3 0 0.94 0.3 0 
0.96 0.3 0 0.98 0.3 0 1 0.3 0 
0 0.32 0 0.02 0.32 0 0.04 0.32 0 
0.06 0.32 0 0.08 0.32 0 0.1 0.32 0 
0.12 0.32 0 0.14 0.32 0 0.16 0.32 0 
0.18 0.32 0 0.2 0.32 0 0.22 0.32 0 
0.24 0.32 0 0.26 0.32 0 0.28 0.32 0 
0.3 0.32 0 0.32 0.32 0 0.34 0.32 0 
0.36 0.32 0 0.38 0.32 0 0.4 0.32 0 
0.42 0.32 0 0.44 0.32 0 0.46 0.32 0 
0.48 0.32 0 0.5 0.32 0 0.52 0.32 0 
0.54 0.32 0 0.56 0.32 0 0.58 0.32 0 
[...]
CELL_DATA 2500
FIELD FieldData 1
pressure 1 2500 double
0.0061886352493 0.0061184118221 0.0059238338216 0.0056470976888 0.0053286871074 0.0050007859858 0.0046877352459 0.0044070420789 0.0041706001377 
0.0039864071107 0.0038600511015 0.0037953481292 0.0037944800046 0.003858312973 0.0039870125544 0.0041805325222 0.0044386708729 0.0047608264449 
0.0051457538918 0.0055914160098 0.0060948348069 0.0066518758468 0.0072570299675 0.0079032765745 0.0085820239656 0.0092830598886 0.0099941164478 
0.010701998076 0.011392765232 0.01205187083 0.012664604988 0.013216621804 0.013694521006 0.014086466682 0.014382812599 0.014576690636 
0.014664519616 0.014646402052 0.014526386901 0.014312585739 0.014017141532 0.013656064896 0.013248967812 0.012818731217 0.012391138961 
0.011994378885 0.011658279528 0.011412383158 0.01128077816 0.011268370765 0.0062529442243 0.0061828087596 0.0060193492727 0.0057919853753 
0.0055284671373 0.0052540522062 0.0049896412553 0.0047508483511 0.0045487962185 0.0043915387359 0.0042848612702 0.0042324962685 0.0042364859927 
0.0042979074381 0.004417501322 0.004595811728 0.0048329683649 0.0051284808144 0.0054811808439 0.0058891739891 0.0063496794957 0.0068588153591 
0.0074114437959 0.0080010999379 0.0086199500827 0.0092587629936 0.0099059787885 0.010549611982 0.011177076715 0.011775286992 0.012331069729 
0.012831635013 0.013265104234 0.013621075081 0.013891183176 0.014069618307 0.014153562625 0.014143526013 0.014043557869 0.013861320355 
0.01360801939 0.013298202995 0.012949445397 0.012581933678 0.012217953902 0.011881221724 0.011595862357 0.01138483738 0.011267312487 
0.01125595276 0.006443739737 0.0063453305764 0.0061813422661 0.0059710629444 0.0057350384909 0.0054933969142 0.0052627775478 0.0050555099069 
0.0048807382182 0.0047454411903 0.0046546189602 0.0046114193701 0.004617782368 0.0046752088117 0.0047850348908 0.0049482054374 0.0051650152916 
0.0054350980282 0.0057575099971 0.0061306682123 0.0065521396123 0.0070184438524 0.0075249529123 0.0080658363064 0.0086339984892 0.0092210481391 
0.0098158866858 0.010407530222 0.010984438548 0.011534602519 0.012045923515 0.012506658602 0.012905927996 0.01323425038 0.013484062525 
0.013650189499 0.01373024061 0.013724906707 0.013638134119 0.013477157387 0.01325238609 0.012977153721 0.012667343576 0.012340906107 
0.012017272342 0.011716648025 0.011459146767 0.011263798321 0.011147655976 0.011126155547 0.0067261606802 0.0065759927078 0.0063870370115 
0.0061711394542 0.0059436857289 0.0057196048701 0.0055104906141 0.0053248635266 0.005169505643 0.0050498642878 0.0049698152266 0.0049318831869 
0.0049379912805 0.004989967068 0.0050894187577 0.0052373789046 0.0054342162165 0.0056798033386 0.0059735959672 0.0063144667326 0.0067004503656 
0.0071285815582 0.0075948237579 0.008093995934 0.0086196827915 0.0091642067428 0.0097168369145 0.010267378057 0.010805046772 0.011318558117 
0.011796487315 0.012227712199 0.012601915226 0.012910101712 0.013145096652 0.013301994925 0.013378540619 0.013375405308 0.013296335424 
0.013148149658 0.012940582655 0.012685983703 0.012398887028 0.012095474479 0.011792952548 0.011508866275 0.011260383691 0.011063641769 
0.010933364415 0.010883199104 0.0070606271725 0.0068448714405 0.0066155013439 0.0063794514585 0.0061473828454 0.0059287128812 0.0057300608866 
0.0055565119626 0.0054126460715 0.0053022678415 0.0052280151433 0.0051917477054 0.0051952247608 0.0052402633715 0.0053283890182 0.0054605753579 
0.0056373562947 0.0058590227196 0.0061255636797 0.0064363858752 0.0067900610087 0.0071842089439 0.0076154271646 0.0080791802422 0.0085696880148 
0.0090799020373 0.0095994254884 0.010118624242 0.010627215736 0.011114335004 0.011568895832 0.011980040103 0.012337639617 0.012632808449 
0.012858397441 0.013009448236 0.013083576296 0.013081245003 0.013005897574 0.012863928244 0.012664490052 0.012419149126 0.012141405501 
0.01184610982 0.01154881351 0.01126509687 0.011009928434 0.010797124596 0.010638995674 0.010546198612 0.0074127596424 0.0071250730142 
0.0068467060638 0.0065813160328 0.0063349491581 0.0061117682565 0.0059141813307 0.0057444983633 0.0056052802902 0.0054985976335 0.0054257545917 
0.0053878321769 0.005386185574 0.0054223264265 0.005497546545 0.0056128330492 0.0057690619986 0.0059670681711 0.0062074137424 0.0064900582681 
0.006814156016 0.0071779688824 0.0075787622651 0.0080126476532 0.0084744547856 0.0089577073152 0.0094523389939 0.0099490402728 0.010437814809 
0.010907966902 0.011348470846 0.011748428463 0.012097574539 0.012386796494 0.012608645996 0.012757815698 0.01283154133 0.012829885094 
0.012755865741 0.012615416978 0.012417171124 0.012172078154 0.011892883805 0.011593504514 0.011288348722 0.01099164017 0.010716797464 
0.010475911203 0.01027932204 0.010135182758 0.0077539938055 0.0073922712246 0.0070606245806 0.0067602372044 0.0064926801361 0.0062575239982 
0.0060538531807 0.0058816855374 0.0057415969143 0.005633840836 0.0055583479568 0.0055153433527 0.0055056276915 0.0055303070024 0.0055904999152 
0.0056873706539 0.0058222573746 0.0059965547759 0.0062113747764 0.0064672458579 0.0067639656801 0.007100499558 0.0074748138765 0.0078836748357 
0.0083225110076 0.0087853791686 0.0092625726124 0.0097448712204 0.010222395236 0.010684417448 0.011119741224 0.011517164608 0.011865994711 
0.012156588063 0.012380895167 0.012532974171 0.012609425585 0.012609700193 0.012536244432 0.012394463055 0.012192493244 0.011940799559 
0.011651616832 0.011338286408 0.011014544541 0.010693825587 0.01038863341 0.010110008241 0.0098670656107 0.0096664932539 0.0080596968282 
0.007624209744 0.0072379732128 0.0068996890013 0.0066065773862 0.0063543697666 0.0061395393904 0.0059600630778 0.0058145171481 0.0057013517125 
0.0056191902218 0.0055674238135 0.0055462929032 0.0055565622288 0.0055993198838 0.005676023735 0.0057884888643 0.005938626919 0.0061280916935 
0.0063580383018 0.0066289884645 0.0069406685367 0.0072917746652 0.0076797428948 0.0081006047295 0.008548930425 0.0090154482741 0.009490801763 
0.0099651033036 0.010427438076 0.010866245832 0.011269789515 0.011626684769 0.011926472421 0.012160207946 0.012321024068 0.012404612515 
0.012409574561 0.012337602026 0.012193463869 0.011984787737 0.011721644185 0.011415963481 0.011080836838 0.010729768355 0.010375946522 
0.010031591388 0.00970740379 0.0094120942835 0.0091519015204 0.0083080821513 0.0078010385577 0.0073611709757 0.0069841072544 0.0066629579928 
0.0063903868752 0.0061607743434 0.0059701708148 0.0058151732002 0.0056925437497 0.0055997483315 0.0055354487193 0.0054994168242 0.0054921988674 
0.0055149640415 0.0055694968702 0.0056580571499 0.0057830586483 0.0059467496953 0.0061510038661 0.0063971440709 0.0066857026854 0.0070161364596 
0.0073865826965 0.0077937006293 0.0082325777709 0.0086945132222 0.0091698043261 0.009648476275 0.010119311262 0.010570226126 0.01098874396 
0.011362544487 0.01168007722 0.011931204864 0.012107826298 0.012204421645 0.012218466384 0.012150671116 0.012005014631 0.01178855304 
0.011511009756 0.01118417764 0.010821189602 0.010435729972 0.010041262096 0.0096503346187 0.0092739996118 0.0089213301116 0.00859896871 
0.008480158079 0.0079053967198 0.007414186446 0.0069985242014 0.0066479858918 0.0063529181844 0.0061059184281 0.0059011192497 0.0057331878912 
0.0055973735665 0.0054901765149 0.0054096730014 0.0053552841226 0.0053274401014 0.0053274469172 0.0053574178109 0.0054200582225 0.0055183365145 
0.0056551912286 0.0058333050172 0.006054861221 0.0063212404962 0.0066327082846 0.0069881586453 0.0073849267419 0.0078186484293 0.008281400381 
0.0087629493913 0.0092531988202 0.0097405506986 0.010212270604 0.01065496123 0.011055137365 0.011399884462 0.011677562543 0.011878501202 
0.011995626281 0.012024961267 0.011965952172 0.011821573493 0.011598189526 0.011305170762 0.010954295414 0.010558994076 0.010133514439 
0.0096920887869 0.0092481761194 0.0088138229614 0.008399143493 0.0080118692852 0.0085595232417 0.0079216837271 0.007381738577 0.0069280796665 
0.0065475890445 0.0062288416571 0.005962692657 0.0057412739731 0.0055574067468 0.0054050451044 0.0052799308787 0.0051796940853 0.0051034988939 
0.0050517258872 0.0050258576767 0.0050283701091 0.0050624764198 0.0051317945901 0.0052400494246 0.0053908031258 0.0055871519683 0.0058313837043 
0.0061246471433 0.0064666729497 0.0068555446004 0.0072875105112 0.0077557096558 0.0082492308973 0.0087578656693 0.0092695977359 0.0097709466665 
0.010247441048 0.010684217422 0.011066724503 0.011381492105 0.011616910268 0.011763957755 0.011816817248 0.011773315504 0.011635133807 
0.011407751935 0.01110011689 0.010724061095 0.010293526334 0.0098236734148 0.0093299682104 0.0088273278821 0.0083293855856 0.0078478899838 
0.0073922078353 0.0085315336619 0.0078351695928 0.0072489476151 0.0067582676853 0.0063480629669 0.0060052960547 0.00571888936 0.0054788914844 
0.0052764400548 0.005104448443 0.0049580874418 0.0048346377554 0.0047330656372 0.0046537610598 0.0045984513773 0.0045700563481 0.0045723914853 
0.0046098174171 0.004686920424 0.0048082032013 0.0049777416022 0.0051988161171 0.0054735588011 0.0058026386685 0.0061849860262 0.0066175636426 
0.0070949468476 0.0076054407764 0.0081387838193 0.0086825496184 0.0092224585731 0.009742844628 0.010227271742 0.01065927966 0.011023220674 
0.011305135052 0.011493602777 0.011580501533 0.011561596817 0.011436894945 0.011210707566 0.010891405451 0.010490875446 0.010023730879 
0.0095063563985 0.0089558862525 0.0083892144166 0.0078221131538 0.0072684966351 0.0067398191621 0.0083824132987 0.007631689368 0.0070016813737 
0.0064755628611 0.006036654924 0.0056701136661 0.0053626861678 0.0051023777365 0.0048788989161 0.0046843677195 0.0045135053844 0.0043632862941 
0.0042325276737 0.0041217136829 0.0040329189728 0.0039696053384 0.0039362752168 0.0039381026273 0.0039805994362 0.0040692805194 0.0042092920789 
0.0044050173114 0.0046596925301 0.004975049902 0.0053509913045 0.00578530933 0.0062745577783 0.0068061326138 0.0073698595845 0.0079529696789 
0.0085403825939 0.009115158462 0.0096591197844 0.010153630592 0.01058050138 0.010922971536 0.011166705487 0.011300724469 0.01131818622 
0.011216926329 0.010999690365 0.010674014549 0.010251751065 0.0097482767779 0.0091814641122 0.0085705213618 0.0079348183647 0.0072927981626 
0.0066610388042 0.0060534828568 0.0080989297491 0.007297917334 0.0066270385712 0.0060677420946 0.005601654286 0.0052118064105 0.0048826679134 
0.0046004026075 0.0043535805693 0.0041336915404 0.0039350443487 0.0037543244883 0.0035902732719 0.0034435831073 0.0033167819675 0.0032139501356 
0.0031403348806 0.0031019819668 0.0031054003549 0.0031572076632 0.0032637309963 0.003430584482 0.0036622515491 0.0039616823613 0.004329912352 
0.0047657215839 0.0052681280674 0.0058237288963 0.0064226287552 0.0070518390957 0.0076955359435 0.0083354782475 0.0089516153977 0.0095228860055 
0.010028186663 0.010447468185 0.010762895265 0.010959984116 0.01102861646 0.010963823619 0.010766244511 0.010442187173 0.010003263441 
0.0094656163199 0.0088488114897 0.0081745072213 0.0074650395235 0.0067420547902 0.0060252917077 0.0053315678209 0.0076686281346 0.0068217437888 
0.0061135106795 0.0055237802973 0.0050322074205 0.0046194919183 0.0042679311264 0.0039621360044 0.0036897564857 0.0034417110953 0.0032118834515 
0.0029967077973 0.0027949556953 0.0026076407322 0.0024378170548 0.00229022488 0.0021708990484 0.002086820043 0.0020455780517 0.0020549956428 
0.0021227021065 0.0022556862278 0.0024598464239 0.0027395408236 0.0030971440092 0.0035326415131 0.0040477139507 0.0046288082371 0.0052664861073 
0.0059477095801 0.0066560378519 0.0073719701425 0.0080735073209 0.0087369486875 0.0093379129875 0.0098525488451 0.010258872835 0.010538144697 
0.01067616462 0.010664363469 0.010500557985 0.010189262947 0.0097414924852 0.0091740401035 0.0085082934957 0.0077687022441 0.0069810593253 
0.0061707696914 0.0053612583421 0.0045726242787 0.0070802234413 0.0061924510029 0.0054508850768 0.0048336741114 0.0043182723129 0.0038830520605 
0.0035083850716 0.0031775904675 0.0028775024152 0.0025984501331 0.0023338889782 0.0020800801748 0.0018359367513 0.0016028674501 0.0013844801628 
0.0011861955164 0.0010148805288 0.00087852046902 0.00078587285071 0.00074606699905 0.00076816055825 0.00086067551173 0.0010311188294 0.0012854828446 
0.0016277263939 0.0020592382062 0.0025843201432 0.0031906262892 0.0038691755447 0.0046071188253 0.0053876265197 0.0061900757667 0.0069905258284 
0.0077624840152 0.0084779586505 0.0091087752004 0.0096281007391 0.010012085414 0.010241494205 0.01030317504 0.010191197082 0.0099075030175 
0.0094619562485 0.0088717279316 0.0081600521055 0.0073544643166 0.0064847106959 0.0055805523362 0.0046696844212 0.0037759448819 0.0063238732958 
0.0054007417566 0.004630174337 0.0039884697622 0.0034508233915 0.0029934585661 0.0025950958425 0.0022379283535 0.0019079873117 0.0015949864386 
0.0012919936394 0.00099519374954 0.00070371709903 0.00041938811367 0.00014636632817 -0.0001092288754 -0.00033965062754 -0.00053584551463 -0.00068781521512 
-0.00078502966019 -0.00081687455026 -0.00077312459311 -0.00064444874738 -0.00042295170932 -0.0001027469892 0.00031942376091 0.00084851742552 0.0014779693037 
0.0021976169222 0.0029953347613 0.0038542998031 0.0047530334008 0.0056657711577 0.0065631671291 0.0074133486926 0.008183318078 0.0088406604615 
0.0093554730675 0.0097023810464 0.0098624613946 0.009824865291 0.0095879232005 0.0091595456961 0.0085568005403 0.0078046479476 0.0069339347774 
0.0059788594589 0.0049741949265 0.003952576126 0.0029421182134 0.0053913269661 0.0044387800955 0.0036436965225 0.0029804662227 0.0024221453855 
0.0019430721793 0.0015205398906 0.0011356897866 0.00077373331002 0.00042377957788 7.8581648473e-05 -0.0002656780547 -0.00060963118518 -0.0009510561423 
-0.0012852522194 -0.0016053829216 -0.0019027864654 -0.0021673011192 -0.0023876343608 -0.0025517712137 -0.0026474142126 -0.0026624621557 -0.0025855378972 
-0.002406560688 -0.0021173330145 -0.0017120565084 -0.0011874788586 -0.00053937702452 0.00021914819335 0.0010774814578 0.0020193390144 0.0030227843685 
0.0040604803962 0.0051002905993 0.0061062911237 0.0070402210714 0.0078633554554 0.0085387301401 0.00903358426 0.0093218199442 0.0093862234014 
0.0092201612905 0.0088284779711 0.0082273841745 0.0074432461555 0.0065103411431 0.0054678086107 0.0043561564865 0.0032137397467 0.0020735990863 
0.0042760428065 0.003300293868 0.002485238703 0.0018034416452 0.0012260675289 0.00072584054517 0.0002787780582 -0.00013500388292 -0.00053111013949 
-0.00092098663634 -0.0013121273907 -0.0017083266254 -0.0021100030439 -0.0025145731208 -0.0029168089422 -0.0033091540397 -0.0036820268118 -0.0040241470752 
-0.0043228944124 -0.0045646960877 -0.0047354535485 -0.004821025025 -0.0048077750961 -0.0046831880858 -0.0044365299925 -0.0040595333783 -0.0035470826785 
-0.0028889364883 -0.0020969324734 -0.0011799615052 -0.00015325015997 0.00096131986176 0.0021352424587 0.0033338133542 0.0045170333355 0.0056410495577 
0.0066601527053 0.0075292856613 0.0082069400907 0.0086582273456 0.008857822703 0.0087924174991 0.0084622963942 0.0078817086079 0.0070778326671 
0.0060883333874 0.0049577411327 0.0037330892513 0.0024593648028 0.0011753211377 0.0029733072362 0.0019806958493 0.0011502129339 0.00045282503694 
-0.00014188343813 -0.00066256846276 -0.0011343914299 -0.0015782355763 -0.0020104821501 -0.0024430702094 -0.0028837073128 -0.0033361861358 -0.0038007635719 
-0.0042745382757 -0.0047517856938 -0.0052242594537 -0.0056814896294 -0.0061110946256 -0.0064991109038 -0.0068303516437 -0.0070888160639 -0.0072581701804 
-0.0073223105185 -0.0072660151051 -0.0070756872326 -0.0067402164158 -0.0062520651558 -0.0055946035882 -0.0047776829386 -0.0038073037899 -0.0026968624478 
-0.0014674957129 -0.00014828575923 0.0012239201333 0.002605221909 0.0039460184025 0.0051930611404 0.0062922066424 0.0071917704796 0.007846270282 
0.0082202193444 0.0082915217895 0.0080539577639 0.0075182687092 0.0067114842213 0.0056743737856 0.0044572210137 0.0031144285921 0.0016986744362 
0.00025537846482 0.0014803356503 0.00047718559579 -0.00036422477769 -0.0010741891294 -0.0016843870587 -0.0022246676192 -0.002721291857 -0.0031960889282 
-0.0036661519704 -0.0041438685719 -0.0046371706734 -0.0051499061963 -0.0056822381546 -0.0062310094732 -0.0067900620024 -0.0073505283129 -0.0079011134057 
-0.0084283746182 -0.0089170122829 -0.0093501946074 -0.0097099433892 -0.0099776014487 -0.010134395936 -0.010162108613 -0.010043863573 -0.0097650407881 
-0.0093143034597 -0.0086735709353 -0.0078441835085 -0.0068293518669 -0.0056399743753 -0.0042956171113 -0.0028251388531 -0.0012668656 0.00033182845184 
0.0019156782365 0.0034235397587 0.0047913101539 0.0059557070052 0.0068587167131 0.0074523529318 0.007703196449 0.0075960600819 0.0071360895426 
0.0063487226379 0.0052772056412 0.0039777760064 0.0025130704958 0.00094466879393 -0.00067419576731 -0.000203659114 -0.0012111779838 -0.0020591007025 
-0.0027785879294 -0.0034022927222 -0.003961096311 -0.0044822638637 -0.0049884863353 -0.0054975057763 -0.0060221517495 -0.0065706341683 -0.0071469402739 
-0.007751228775 -0.0083801800105 -0.0090273035126 -0.0096832133469 -0.010335878556 -0.010970860548 -0.01157156018 -0.012119503561 -0.012594693739 
-0.012976050774 -0.013241959717 -0.013370944088 -0.013342478207 -0.01313794408 -0.012741738427 -0.012135689396 -0.011309375991 -0.010262867818 
-0.0090034610424 -0.0075480753873 -0.0059243047658 -0.0041710175864 -0.0023383345763 -0.00048678980874 0.0013145082878 0.0029908461522 0.0044660298394 
0.0056675281353 0.0065322828088 0.0070125944078 0.0070812756195 0.0067351449798 0.0059959915881 0.0049084316213 0.0035345893473 0.001946163159 
0.00021498882201 -0.0015965247981 -0.0020774330497 -0.003083448632 -0.0039336201226 -0.0046595702342 -0.0052946563749 -0.0058706226555 -0.0064156102913 
-0.0069530767438 -0.0075013805192 -0.0080738358311 -0.0086790240476 -0.0093211847933 -0.010000593507 -0.010713898294 -0.011454412198 -0.012212360659 
-0.012975091136 -0.013727263957 -0.014451052126 -0.015126379906 -0.015731228494 -0.016242035739 -0.016634216052 -0.016882823994 -0.016963376699 
-0.016852826748 -0.016530599263 -0.015979293395 -0.015175081223 -0.014113707293 -0.012797640008 -0.011239907991 -0.0094655810153 -0.0075128567026 
-0.0054335411765 -0.0032926698524 -0.0011670054456 0.00085781386095 0.0026916055493 0.0042454079731 0.0054383781906 0.0062052016851 0.0065030641471 
0.0063169892439 0.0056623016378 0.0045832378308 0.0031473313078 0.0014360416494 -0.00046707064123 -0.0024888281895 -0.0041377256138 -0.0051368390481 
-0.0059852590663 -0.0067146658965 -0.0073588438387 -0.0079501967282 -0.0085175918821 -0.0090851798936 -0.0096719571917 -0.010291819231 -0.010953853119 
-0.011662700271 -0.012418912828 -0.013219274019 -0.014057066129 -0.014922281611 -0.015801788481 -0.0166794726 -0.017536384833 -0.018350923503 
-0.01909908387 -0.019754807086 -0.02029046107 -0.020677484443 -0.0208872224 -0.02089198406 -0.020666373585 -0.020189092097 -0.019429478176 
-0.018374075714 -0.017019298755 -0.015372965158 -0.013456198408 -0.011305057649 -0.0089716296796 -0.0065242649173 -0.0040466067299 -0.0016350731181 
0.00060547353238 0.0025679609035 0.0041510500565 0.0052681929921 0.0058567468996 0.0058856681866 0.005360096022 0.004321304744 0.0028411647375 
0.0010113365773 -0.0010713685625 -0.0033211764112 -0.0063793490987 -0.0073668638749 -0.0082099527034 -0.0089399308941 -0.0095906922251 -0.010195062204 
-0.010782493593 -0.011377811273 -0.01200073892 -0.01266590708 -0.013383090712 -0.014157529152 -0.014990255658 -0.015878392524 -0.016815386132 
-0.017791178352 -0.018792327136 -0.01980209774 -0.020800552022 -0.021764668589 -0.022668529449 -0.023483609727 -0.024179207287 -0.024723049348 
-0.025082114074 -0.025223710225 -0.025116885179 -0.024734357468 -0.024045122255 -0.023020179818 -0.021648986453 -0.01993285896 -0.017887461297 
-0.015545037978 -0.012956224495 -0.01019106067 -0.0073387680123 -0.0045058263505 -0.0018119236824 0.00061649921199 0.0026550894681 0.0041923192068 