# vtk DataFile Version 4.1
vtk output
ASCII
DATASET STRUCTURED_GRID
DIMENSIONS 51 51 1
POINTS 2601 float
0 0 0 0.02 0 0 0.04 0 0 
0.06 0 0 0.08 0 0 0.1 0 0 
0.12 0 0 0.14 0 0 0.16 0 0 
0.18 0 0 0.2 0 0 0.22 0 0 
0.24 0 0 0.26 0 0 0.28 0 0 
0.3 0 0 0.32 0 0 0.34 0 0 
0.36 0 0 0.38 0 0 0.4 0 0 
0.42 0 0 0.44 0 0 0.46 0 0 
0.48 0 0 0.5 0 0 0.52 0 0 
0.54 0 0 0.56 0 0 0.58 0 0 
0.6 0 0 0.62 0 0 0.64 0 0 
0.66 0 0 0.68 0 0 0.7 0 0 
0.72 0 0 0.74 0 0 0.76 0 0 
0.78 0 0 0.8 0 0 0.82 0 0 
0.84 0 0 0.86 0 0 0.88 0 0 
0.9 0 0 0.92 0 0 0.94 0 0 
0.96 0 0 0.98 0 0 1 0 0 
0 0.02 0 0.02 0.02 0 0.04 0.02 0 
0.06 0.02 0 0.08 0.02 0 0.1 0.02 0 
0.12 0.02 0 0.14 0.02 0 0.16 0.02 0 
0.18 0.02 0 0.2 0.02 0 0.22 0.02 0 
0.24 0.02 0 0.26 0.02 0 0.28 0.02 0 
0.3 0.02 0 0.32 0.02 0 0.34 0.02 0 
0.36 0.02 0 0.38 0.02 0 0.4 0.02 0 
0.42 0.02 0 0.44 0.02 0 0.46 0.02 0 
0.48 0.02 0 0.5 0.02 0 0.52 0.02 0 
0.54 0.02 0 0.56 0.02 0 0.58 0.02 0 
0.6 0.02 0 0.62 0.02 0 0.64 0.02 0 
0.66 0.02 0 0.68 0.02 0 0.7 0.02 0 
0.72 0.02 0 0.74 0.02 0 0.76 0.02 0 
0.78 0.02 0 0.8 0.02 0 0.82 0.02 0 
0.84 0.02 0 0.86 0.02 0 0.88 0.02 0 
0.9 0.02 0 0.92 0.02 0 0.94 0.02 0 
0.96 0.02 0 0.98 0.02 0 1 0.02 0 
0 0.04 0 0.02 0.04 0 0.04 0.04 0 
0.06 0.04 0 0.08 0.04 0 0.1 0.04 0 
0.12 0.04 0 0.14 0.04 0 0.16 0.04 0 
0.18 0.04 0 0.2 0.04 0 0.22 0.04 0 
0.24 0.04 0 0.26 0.04 0 0.28 0.04 0 
0.3 0.04 0 0.32 0.04 0 0.34 0.04 0 
0.36 0.04 0 0.38 0.04 0 0.4 0.04 0 
0.42 0.04 0 0.44 0.04 0 0.46 0.04 0 
0.48 0.04 0 0.5 0.04 0 0.52 0.04 0 
0.54 0.04 0 0.56 0.04 0 0.58 0.04 0 
0.6 0.04 0 0.62 0.04 0 0.64 0.04 0 
0.66 0.04 0 0.68 0.04 0 0.7 0.04 0 
0.72 0.04 0 0.74 0.04 0 0.76 0.04 0 
0.78 0.04 0 0.8 0.04 0 0.82 0.04 0 
0.84 0.04 0 0.86 0.04 0 0.88 0.04 0 
0.9 0.04 0 0.92 0.04 0 0.94 0.04 0 
0.96 0.04 0 0.98 0.04 0 1 0.04 0 
0 0.06 0 0.02 0.06 0 0.04 0.06 0 
0.06 0.06 0 0.08 0.06 0 0.1 0.06 0 
0.12 0.06 0 0.14 0.06 0 0.16 0.06 0 
0.18 0.06 0 0.2 0.06 0 0.22 0.06 0 
0.24 0.06 0 0.26 0.06 0 0.28 0.06 0 
0.3 0.06 0 0.32 0.06 0 0.34 0.06 0 
0.36 0.06 0 0.38 0.06 0 0.4 0.06 0 
0.42 0.06 0 0.44 0.06 0 0.46 0.06 0 
0.48 0.06 0 0.5 0.06 0 0.52 0.06 0 
0.54 0.06 0 0.56 0.06 0 0.58 0.06 0 
0.6 0.06 0 0.62 0.06 0 0.64 0.06 0 
0.66 0.06 0 0.68 0.06 0 0.7 0.06 0 
0.72 0.06 0 0.74 0.06 0 0.76 0.06 0 
0.78 0.06 0 0.8 0.06 0 0.82 0.06 0 
0.84 0.06 0 0.86 0.06 0 0.88 0.06 0 
0.9 0.06 0 0.92 0.06 0 0.94 0.06 0 
0.96 0.06 0 0.98 0.06 0 1 0.06 0 
0 0.08 0 0.02 0.08 0 0.04 0.08 0 
0.06 0.08 0 0.08 0.08 0 0.1 0.08 0 
0.12 0.08 0 0.14 0.08 0 0.16 0.08 0 
0.18 0.08 0 0.2 0.08 0 0.22 0.08 0 
0.24 0.08 0 0.26 0.08 0 0.28 0.08 0 
0.3 0.08 0 0.32 0.08 0 0.34 0.08 0 
0.36 0.08 0 0.38 0.08 0 0.4 0.08 0 
0.42 0.08 0 0.44 0.08 0 0.46 0.08 0 
0.48 0.08 0 0.5 0.08 0 0.52 0.08 0 
0.54 0.08 0 0.56 0.08 0 0.58 0.08 0 
0.6 0.08 0 0.62 0.08 0 0.64 0.08 0 
0.66 0.08 0 0.68 0.08 0 0.7 0.08 0 
0.72 0.08 0 0.74 0.08 0 0.76 0.08 0 
0.78 0.08 0 0.8 0.08 0 0.82 0.08 0 
0.84 0.08 0 0.86 0.08 0 0.88 0.08 0 
0.9 0.08 0 0.92 0.08 0 0.94 0.08 0 
0.96 0.08 0 0.98 0.08 0 1 0.08 0 
0 0.1 0 0.02 0.1 0 0.04 0.1 0 
0.06 0.1 0 0.08 0.1 0 0.1 0.1 0 
0.12 0.1 0 0.14 0.1 0 0.16 0.1 0 
0.18 0.1 0 0.2 0.1 0 0.22 0.1 0 
0.24 0.1 0 0.26 0.1 0 0.28 0.1 0 
0.3 0.1 0 0.32 0.1 0 0.34 0.1 0 
0.36 0.1 0 0.38 0.1 0 0.4 0.1 0 
0.42 0.1 0 0.44 0.1 0 0.46 0.1 0 
0.48 0.1 0 0.5 0.1 0 0.52 0.1 0 
0.54 0.1 0 0.56 0.1 0 0.58 0.1 0 
0.6 0.1 0 0.62 0.1 0 0.64 0.1 0 
0.66 0.1 0 0.68 0.1 0 0.7 0.1 0 
0.72 0.1 0 0.74 0.1 0 0.76 0.1 0 
0.78 0.1 0 0.8 0.1 0 0.82 0.1 0 
0.84 0.1 0 0.86 0.1 0 0.88 0.1 0 
0.9 0.1 0 0.92 0.1 0 0.94 0.1 0 
0.96 0.1 0 0.98 0.1 0 1 0.1 0 
0 0.12 0 0.02 0.12 0 0.04 0.12 0 
0.06 0.12 0 0.08 0.12 0 0.1 0.12 0 
0.12 0.12 0 0.14 0.12 0 0.16 0.12 0 
0.18 0.12 0 0.2 0.12 0 0.22 0.12 0 
0.24 0.12 0 0.26 0.12 0 0.28 0.12 0 
0.3 0.12 0 0.32 0.12 0 0.34 0.12 0 
0.36 0.12 0 0.38 0.12 0 0.4 0.12 0 
0.42 0.12 0 0.44 0.12 0 0.46 0.12 0 
0.48 0.12 0 0.5 0.12 0 0.52 0.12 0 
0.54 0.12 0 0.56 0.12 0 0.58 0.12 0 
0.6 0.12 0 0.62 0.12 0 0.64 0.12 0 
0.66 0.12 0 0.68 0.12 0 0.7 0.12 0 
0.72 0.12 0 0.74 0.12 0 0.76 0.12 0 
0.78 0.12 0 0.8 0.12 0 0.82 0.12 0 
0.84 0.12 0 0.86 0.12 0 0.88 0.12 0 
0.9 0.12 0 0.92 0.12 0 0.94 0.12 0 
0.96 0.12 0 0.98 0.12 0 1 0.12 0 
0 0.14 0 0.02 0.14 0 0.04 0.14 0 
0.06 0.14 0 0.08 0.14 0 0.1 0.14 0 
0.12 0.14 0 0.14 0.14 0 0.16 0.14 0 
0.18 0.14 0 0.2 0.14 0 0.22 0.14 0 
0.24 0.14 0 0.26 0.14 0 0.28 0.14 0 
0.3 0.14 0 0.32 0.14 0 0.34 0.14 0 
0.36 0.14 0 0.38 0.14 0 0.4 0.14 0 
0.42 0.14 0 0.44 0.14 0 0.46 0.14 0 
0.48 0.14 0 0.5 0.14 0 0.52 0.14 0 
0.54 0.14 0 0.56 0.14 0 0.58 0.14 0 
0.6 0.14 0 0.62 0.14 0 0.64 0.14 0 
0.66 0.14 0 0.68 0.14 0 0.7 0.14 0 
0.72 0.14 0 0.74 0.14 0 0.76 0.14 0 
0.78 0.14 0 0.8 0.14 0 0.82 0.14 0 
0.84 0.14 0 0.86 0.14 0 0.88 0.14 0 
0.9 0.14 0 0.92 0.14 0 0.94 0.14 0 
0.96 0.14 0 0.98 0.14 0 1 0.14 0 
0 0.16 0 0.02 0.16 0 0.04 0.16 0 
0.06 0.16 0 0.08 0.16 0 0.1 0.16 0 
0.12 0.16 0 0.14 0.16 0 0.16 0.16 0 
0.18 0.16 0 0.2 0.16 0 0.22 0.16 0 
0.24 0.16 0 0.26 0.16 0 0.28 0.16 0 
0.3 0.16 0 0.32 0.16 0 0.34 0.16 0 
0.36 0.16 0 0.38 0.16 0 0.4 0.16 0 
0.42 0.16 0 0.44 0.16 0 0.46 0.16 0 
0.48 0.16 0 0.5 0.16 0 0.52 0.16 0 
0.54 0.16 0 0.56 0.16 0 0.58 0.16 0 
0.6 0.16 0 0.62 0.16 0 0.64 0.16 0 
0.66 0.16 0 0.68 0.16 0 0.7 0.16 0 
0.72 0.16 0 0.74 0.16 0 0.76 0.16 0 
0.78 0.16 0 0.8 0.16 0 0.82 0.16 0 
0.84 0.16 0 0.86 0.16 0 0.88 0.16 0 
0.9 0.16 0 0.92 0.16 0 0.94 0.16 0 
0.96 0.16 0 0.98 0.16 0 1 0.16 0 
0 0.18 0 0.02 0.18 0 0.04 0.18 0 
0.06 0.18 0 0.08 0.18 0 0.1 0.18 0 
0.12 0.18 0 0.14 0.18 0 0.16 0.18 0 
0.18 0.18 0 0.2 0.18 0 0.22 0.18 0 
0.24 0.18 0 0.26 0.18 0 0.28 0.18 0 
0.3 0.18 0 0.32 0.18 0 0.34 0.18 0 
0.36 0.18 0 0.38 0.18 0 0.4 0.18 0 
0.42 0.18 0 0.44 0.18 0 0.46 0.18 0 
0.48 0.18 0 0.5 0.18 0 0.52 0.18 0 
0.54 0.18 0 0.56 0.18 0 0.58 0.18 0 
0.6 0.18 0 0.62 0.18 0 0.64 0.18 0 
0.66 0.18 0 0.68 0.18 0 0.7 0.18 0 
0.72 0.18 0 0.74 0.18 0 0.76 0.18 0 
0.78 0.18 0 0.8 0.18 0 0.82 0.18 0 
0.84 0.18 0 0.86 0.18 0 0.88 0.18 0 
0.9 0.18 0 0.92 0.18 0 0.94 0.18 0 
0.96 0.18 0 0.98 0.18 0 1 0.18 0 
0 0.2 0 0.02 0.2 0 0.04 0.2 0 
0.06 0.2 0 0.08 0.2 0 0.1 0.2 0 
0.12 0.2 0 0.14 0.2 0 0.16 0.2 0 
0.18 0.2 0 0.2 0.2 0 0.22 0.2 0 
0.24 0.2 0 0.26 0.2 0 0.28 0.2 0 
0.3 0.2 0 0.32 0.2 0 0.34 0.2 0 
0.36 0.2 0 0.38 0.2 0 0.4 0.2 0 
0.42 0.2 0 0.44 0.2 0 0.46 0.2 0 
0.48 0.2 0 0.5 0.2 0 0.52 0.2 0 
0.54 0.2 0 0.56 0.2 0 0.58 0.2 0 
0.6 0.2 0 0.62 0.2 0 0.64 0.2 0 
0.66 0.2 0 0.68 0.2 0 0.7 0.2 0 
0.72 0.2 0 0.74 0.2 0 0.76 0.2 0 
0.78 0.2 0 0.8 0.2 0 0.82 0.2 0 
0.84 0.2 0 0.86 0.2 0 0.88 0.2 0 
0.9 0.2 0 0.92 0.2 0 0.94 0.2 0 
0.96 0.2 0 0.98 0.2 0 1 0.2 0 
0 0.22 0 0.02 0.22 0 0.04 0.22 0 
0.06 0.22 0 0.08 0.22 0 0.1 0.22 0 
0.12 0.22 0 0.14 0.22 0 0.16 0.22 0 
0.18 0.22 0 0.2 0.22 0 0.22 0.22 0 
0.24 0.22 0 0.26 0.22 0 0.28 0.22 0 
0.3 0.22 0 0.32 0.22 0 0.34 0.22 0 
0.36 0.22 0 0.38 0.22 0 0.4 0.22 0 
0.42 0.22 0 0.44 0.22 0 0.46 0.22 0 
0.48 0.22 0 0.5 0.22 0 0.52 0.22 0 
0.54 0.22 0 0.56 0.22 0 0.58 0.22 0 
0.6 0.22 0 0.62 0.22 0 0.64 0.22 0 
0.66 0.22 0 0.68 0.22 0 0.7 0.22 0 
0.72 0.22 0 0.74 0.22 0 0.76 0.22 0 
0.78 0.22 0 0.8 0.22 0 0.82 0.22 0 
0.84 0.22 0 0.86 0.22 0 0.88 0.22 0 
0.9 0.22 0 0.92 0.22 0 0.94 0.22 0 
0.96 0.22 0 0.98 0.22 0 1 0.22 0 
0 0.24 0 0.02 0.24 0 0.04 0.24 0 
0.06 0.24 0 0.08 0.24 0 0.1 0.24 0 
0.12 0.24 0 0.14 0.24 0 0.16 0.24 0 
0.18 0.24 0 0.2 0.24 0 0.22 0.24 0 
0.24 0.24 0 0.26 0.24 0 0.28 0.24 0 
0.3 0.24 0 0.32 0.24 0 0.34 0.24 0 
0.36 0.24 0 0.38 0.24 0 0.4 0.24 0 
0.42 0.24 0 0.44 0.24 0 0.46 0.24 0 
0.48 0.24 0 0.5 0.24 0 0.52 0.24 0 
0.54 0.24 0 0.56 0.24 0 0.58 0.24 0 
0.6 0.24 0 0.62 0.24 0 0.64 0.24 0 
0.66 0.24 0 0.68 0.24 0 0.7 0.24 0 
0.72 0.24 0 0.74 0.24 0 0.76 0.24 0 
0.78 0.24 0 0.8 0.24 0 0.82 0.24 0 
0.84 0.24 0 0.86 0.24 0 0.88 0.24 0 
0.9 0.24 0 0.92 0.24 0 0.94 0.24 0 
0.96 0.24 0 0.98 0.24 0 1 0.24 0 
0 0.26 0 0.02 0.26 0 0.04 0.26 0 
0.06 0.26 0 0.08 0.26 0 0.1 0.26 0 
0.12 0.26 0 0.14 0.26 0 0.16 0.26 0 
0.18 0.26 0 0.2 0.26 0 0.22 0.26 0 
0.24 0.26 0 0.26 0.26 0 0.28 0.26 0 
0.3 0.26 0 0.32 0.26 0 0.34 0.26 0 
0.36 0.26 0 0.38 0.26 0 0.4 0.26 0 
0.42 0.26 0 0.44 0.26 0 0.46 0.26 0 
0.48 0.26 0 0.5 0.26 0 0.52 0.26 0 
0.54 0.26 0 0.56 0.26 0 0.58 0.26 0 
0.6 0.26 0 0.62 0.26 0 0.64 0.26 0 
0.66 0.26 0 0.68 0.26 0 0.7 0.26 0 
0.72 0.26 0 0.74 0.26 0 0.76 0.26 0 
0.78 0.26 0 0.8 0.26 0 0.82 0.26 0 
0.84 0.26 0 0.86 0.26 0 0.88 0.26 0 
0.9 0.26 0 0.92 0.26 0 0.94 0.26 0 
0.96 0.26 0 0.98 0.26 0 1 0.26 0 
0 0.28 0 0.02 0.28 0 0.04 0.28 0 
0.06 0.28 0 0.08 0.28 0 0.1 0.28 0 
0.12 0.28 0 0.14 0.28 0 0.16 0.28 0 
0.18 0.28 0 0.2 0.28 0 0.22 0.28 0 
0.24 0.28 0 0.26 0.28 0 0.28 0.28 0 
0.3 0.28 0 0.32 0.28 0 0.34 0.28 0 
0.36 0.28 0 0.38 0.28 0 0.4 0.28 0 
0.42 0.28 0 0.44 0.28 0 0.46 0.28 0 
0.48 0.28 0 0.5 0.28 0 0.52 0.28 0 
0.54 0.28 0 0.56 0.28 0 0.58 0.28 0 
0.6 0.28 0 0.62 0.28 0 0.64 0.28 0 
0.66 0.28 0 0.68 0.28 0 0.7 0.28 0 
0.72 0.28 0 0.74 0.28 0 0.76 0.28 0 
0.78 0.28 0 0.8 0.28 0 0.82 0.28 0 
0.84 0.28 0 0.86 0.28 0 0.88 0.28 0 
0.9 0.28 0 0.92 0.28 0 0.94 0.28 0 
0.96 0.28 0 0.98 0.28 0 1 0.28 0 
0 0.3 0 0.02 0.3 0 0.04 0.3 0 
0.06 0.3 0 0.08 0.3 0 0.1 0.3 0 
0.12 0.3 0 0.14 0.3 0 0.16 0.3 0 
0.18 0.3 0 0.2 0.3 0 0.22 0.3 0 
0.24 0.3 0 0.26 0.3 0 0.28 0.3 0 
0.3 0.3 0 0.32 0.3 0 0.34 0.3 0 
0.36 0.3 0 0.38 0.3 0 0.4 0.3 0 
0.42 0.3 0 0.44 0.3 0 0.46 0.3 0 
0.48 0.3 0 0.5 0.3 0 0.52 0.3 0 
0.54 0.3 0 0.56 0.3 0 0.58 0.3 0 
0.6 0.3 0 0.62 0.3 0 0.64 0.3 0 
0.66 0.3 0 0.68 0.3 0 0.7 0.3 0 
0.72 0.3 0 0.74 0.3 0 0.76 0.3 0 
0.78 0.3 0 0.8 0.3 0 0.82 0.3 0 
0.84 0.3 0 0.86 0.3 0 0.88 0.3 0 
0.9 0.3 0 0.92 0.3 0 0.94 0.3 0 
0.96 0.3 0 0.98 0.3 0 1 0.3 0 
0 0.32 0 0.02 0.32 0 0.04 0.32 0 
0.06 0.32 0 0.08 0.32 0 0.1 0.32 0 
0.12 0.32 0 0.14 0.32 0 0.16 0.32 0 
0.18 0.32 0 0.2 0.32 0 0.22 0.32 0 
0.24 0.32 0 0.26 0.32 0 0.28 0.32 0 
0.3 0.32 0 0.32 0.32 0 0.34 0.32 0 
0.36 0.32 0 0.38 0.32 0 0.4 0.32 0 
0.42 0.32 0 0.44 0.32 0 0.46 0.32 0 
0.48 0.32 0 0.5 0.32 0 0.52 0.32 0 
0.54 0.32 0 0.56 0.32 0 0.58 0.32 0 
[...]
CELL_DATA 2500
FIELD FieldData 1
pressure 1 2500 double
0.0061857046445 0.0061190301903 0.0059276456398 0.0056505643746 0.0053290254436 0.00499766642 0.0046826466932 0.0044020753573 0.0041675969362 
0.0039863501313 0.0038626775955 0.0037993398012 0.0037982526425 0.0038608295353 0.0039880444624 0.0041803814352 0.004437790501 0.0047596452414 
0.005144639324 0.005590620549 0.006094425508 0.0066517516977 0.0072570386863 0.0079033234333 0.0085820868321 0.0092831371833 0.0099941891963 
0.010702040026 0.011392769527 0.012051854864 0.012664591851 0.013216622467 0.013694532721 0.014086482178 0.014382827551 0.014576704604 
0.014664533688 0.014646417042 0.01452640287 0.014312601973 0.014017156703 0.013656077582 0.013248977238 0.012818737668 0.012391143508 
0.011994382665 0.011658283213 0.011412386903 0.011280781893 0.011268374479 0.006251300289 0.0061834341775 0.0060198347443 0.0057906206337 
0.0055258139286 0.0052516534925 0.0049886321788 0.0047516405517 0.0045512161992 0.0043948536074 0.004287943685 0.0042343711014 0.0042368723482 
0.0042972330289 0.0044164324365 0.0045948120742 0.0048322216417 0.0051280393212 0.0054810530592 0.0058892947752 0.0063499028649 0.0068589988063 
0.0074115357804 0.0080011349756 0.0086199751446 0.0092587869663 0.0099059848975 0.010549594135 0.011177050537 0.011775271898 0.012331071058 
0.012831644871 0.013265113595 0.013621081428 0.013891188935 0.014069626033 0.014153572732 0.014143537416 0.014043569189 0.013861330462 
0.013608027581 0.013298209176 0.012949450147 0.012581937931 0.012217958384 0.011881226605 0.011595867383 0.011384842235 0.011267317085 
0.011255957246 0.0064427544332 0.006344793826 0.0061798257438 0.0059693523299 0.0057348537946 0.0054952995626 0.005265986159 0.0050588629118 
0.004883280268 0.0047464876217 0.0046539076329 0.0046093765695 0.0046154029313 0.004673455404 0.0047842975039 0.0049482943768 0.005165543933 
0.0054357835219 0.0057581897231 0.0061312110482 0.0065524500858 0.0070185281237 0.0075249143626 0.0080657846866 0.0086339749351 0.0092210350087 
0.0098158637866 0.010407504196 0.010984427047 0.011534609252 0.01204593608 0.012506664319 0.012905925137 0.013234245246 0.013484060733 
0.013650191812 0.013730244714 0.013724910396 0.013638136609 0.013477158966 0.013252387473 0.012977155693 0.012667346766 0.012340910698 
0.01201727793 0.011716653873 0.011459152284 0.011263803337 0.011147660701 0.011126160264 0.0067261924716 0.006576040968 0.0063866177057 
0.0061716780094 0.0059459796373 0.0057227143358 0.0055128903949 0.0053256547394 0.0051685308701 0.0050474054399 0.0049665621246 0.0049288949509 
0.0049362378755 0.0049897515004 0.0050902938327 0.0052386241619 0.0054353410454 0.0056806494387 0.0059741499773 0.0063147269086 0.0067004556288 
0.0071284520555 0.0075946998872 0.008093944073 0.0086196804052 0.0091642072097 0.0097168265695 0.010267373108 0.010805058582 0.011318577421 
0.011796498084 0.01222770955 0.01260190658 0.012910095837 0.013145095828 0.013301996158 0.013378540727 0.013375403651 0.013296333246 
0.013148148444 0.012940583268 0.012685986354 0.012398891451 0.012095480005 0.011792958287 0.011508871526 0.011260388262 0.011063645915 
0.010933368536 0.010883203386 0.0070628980245 0.0068463159486 0.0066159645109 0.0063802770217 0.0061486649815 0.005929366498 0.0057293426458 
0.005554575316 0.0054100350462 0.0052995344869 0.0052257858507 0.0051906556173 0.0051954938986 0.0052414618239 0.0053297491057 0.0054615580155 
0.0056378785396 0.0058592435426 0.0061256063512 0.0064362913669 0.0067898875434 0.0071840602168 0.0076153745494 0.0080792067606 0.0085697284464 
0.0090799177447 0.0095994266682 0.010118635046 0.010627239725 0.011114357102 0.011568904667 0.011980038909 0.012337638142 0.012632811415 
0.012858402482 0.013009451367 0.013083576476 0.013081244014 0.013005897555 0.012863930109 0.012664493585 0.012419153718 0.012141410551 
0.011846114765 0.011548817891 0.011265100565 0.011009931692 0.010797127829 0.010638999154 0.010546202302 0.0074166454869 0.0071262402887 
0.0068459987719 0.0065804682885 0.0063341428765 0.0061105290337 0.0059125949761 0.0057430620785 0.0056042675062 0.0054980230735 0.0054256880878 
0.0053883667187 0.0053871280352 0.0054231839449 0.0054979205844 0.0056127329734 0.0057687815786 0.0059668432648 0.0062072740092 0.0064899465922 
0.0068140700517 0.0071779517614 0.0075788172987 0.0080127199759 0.0084744924001 0.0089577093516 0.0094523384105 0.0099490583758 0.010437844318 
0.010907990633 0.011348483157 0.011748436101 0.012097584372 0.012386808347 0.012608655852 0.012757821591 0.012831544832 0.012829888762 
0.012755870673 0.012615422643 0.012417176576 0.012172082932 0.011892887914 0.011593508058 0.011288351782 0.01099164294 0.010716800222 
0.010475914182 0.010279325265 0.010135186083 0.0077570027885 0.0073915051761 0.0070585107722 0.0067587121624 0.006491827501 0.0062570769607 
0.006053962166 0.0058824269616 0.0057426138061 0.0056347010321 0.0055589259629 0.005515691294 0.0055056870375 0.0055299575679 0.0055898251104 
0.0056866905834 0.0058218567739 0.0059964602595 0.0062114253447 0.0064673066472 0.0067640186971 0.0071005705139 0.0074748898469 0.0078837157355 
0.0083225057776 0.0087853586624 0.0092625715202 0.0097448949767 0.01022242598 0.010684440018 0.011119755689 0.011517178241 0.011866010475 
0.012156603083 0.012380906368 0.012532981992 0.012609432548 0.012609707808 0.012536252203 0.012394469725 0.012192498255 0.011940803314 
0.011651620021 0.011338289435 0.011014547514 0.010693828568 0.01038863646 0.010110011395 0.00986706879 0.0096664963815 0.0080601168964 
0.0076220746471 0.007236293986 0.0068994795738 0.0066072537862 0.0063555029866 0.0061410871983 0.0059617480022 0.005815774066 0.0057018382463 
0.005619010645 0.0055668474019 0.0055454856604 0.0055556540451 0.0055985444406 0.0056756224007 0.0057884982619 0.0059388555614 0.0061283150344 
0.0063581682254 0.006629057451 0.0069407165797 0.0072917970338 0.0076797261055 0.0081005661538 0.0085489055622 0.0090154541811 0.0094908264866 
0.0099651265939 0.010427452426 0.010866256663 0.011269802745 0.011626699824 0.011926485507 0.01216021758 0.012321031956 0.012404620629 
0.012409582958 0.012337609413 0.012193469347 0.011984791639 0.011721647493 0.011415966897 0.011080840457 0.010729771979 0.010375950014 
0.010031594717 0.009707406971 0.0094120972941 0.0091519043927 0.0083065818223 0.0077994144208 0.0073612437734 0.0069853381628 0.0066643075386 
0.0063916112366 0.0061619742584 0.0059711239075 0.0058155004041 0.0056921915474 0.0055990155418 0.0055346470285 0.0054986965011 0.0054916566686 
0.0055147225367 0.0055695987882 0.0056583686658 0.0057833610491 0.0059469150853 0.0061510503544 0.0063971458522 0.0066856953249 0.0070161131827 
0.0073865417937 0.0077936637846 0.0082325659758 0.0086945242334 0.00916982007 0.0096484845206 0.010119314218 0.010570231449 0.010988754055 
0.01136255583 0.011680086248 0.011931211572 0.012107832705 0.012204428739 0.01221847335 0.012150676777 0.012005018837 0.011788556621 
0.011511013538 0.011184181795 0.010821193791 0.010435733856 0.01004126558 0.0096503377651 0.0092740024955 0.0089213327661 0.0085989712031 
0.0084786344256 0.0079052597334 0.0074153474203 0.0069995931284 0.0066483503586 0.0063529776257 0.0061060659956 0.0059012339853 0.0057330216676 
0.0055969690774 0.0054897708813 0.0054094058592 0.0053551492888 0.0053274259446 0.0053275775123 0.0053576612317 0.0054202950547 0.0055184588943 
0.0056551951963 0.005833262856 0.0060548303842 0.006321224109 0.0066326879978 0.0069881335496 0.0073849113847 0.007818648975 0.0082814070773 
0.0087629505514 0.0092531938198 0.0097405472253 0.010212273796 0.010654969059 0.011055144956 0.011399889644 0.011677566594 0.011878505934 
0.011995631836 0.012024966585 0.011965956557 0.011821577261 0.011598193388 0.011305174996 0.010954299726 0.010558998033 0.010133517876 
0.0096920917903 0.009248178827 0.0088138254305 0.0083991457395 0.0080118713548 0.0085590877688 0.0079224376293 0.0073824982416 0.0069278427194 
0.0065466844014 0.006228149462 0.0059625565629 0.0057414224607 0.0055575431693 0.0054051577943 0.0052801089253 0.005179912489 0.0051036671204 
0.0050518231765 0.00502592716 0.0050284251614 0.0050624845649 0.0051317442995 0.00523998196 0.00539076763 0.0055871560139 0.005831400367 
0.0061246546041 0.0064666722788 0.0068555450674 0.0072875126528 0.0077557071973 0.0082492222174 0.0087578569688 0.0092695955913 0.0097709512806 
0.010247447683 0.010684222169 0.011066727242 0.011381494838 0.011616914187 0.011763962386 0.011816821634 0.01177331937 0.011635137545 
0.011407755875 0.011100120901 0.010724064812 0.010293529548 0.0098236762003 0.0093299707247 0.008827330203 0.0083293876872 0.007847891847 
0.0073922094903 0.0085319300342 0.007835772093 0.0072487120498 0.0067571386895 0.006346957193 0.0060049492169 0.005719229356 0.0054794365537 
0.0052769058938 0.0051048417327 0.0049584390159 0.0048348721735 0.0047331152126 0.0046536689734 0.0045983165129 0.0045699360134 0.0045722933169 
0.0046097479414 0.0046868982691 0.0048082308969 0.0049777928735 0.005198859063 0.0054735813119 0.0058026472949 0.0061849888251 0.0066175616913 
0.0070949395593 0.0076054320211 0.0081387796682 0.0086825522093 0.0092224646965 0.0097428498895 0.010227274619 0.010659281584 0.011023223442 
0.01130513898 0.011493607046 0.011580505467 0.011561600419 0.011436898508 0.011210711138 0.010891408812 0.010490878409 0.010023733466 
0.0095063587501 0.0089558884438 0.0083892164182 0.0078221148954 0.0072684981013 0.0067398203879 0.0083828960721 0.0076317724702 0.0070009893334 
0.0064746235479 0.0060362553866 0.0056704418234 0.0053633199856 0.0051028905482 0.0048792189974 0.0046846082235 0.0045136857959 0.004363322998 
0.0042323949158 0.0041214992301 0.0040327308591 0.0039694878274 0.0039362210321 0.0039380992617 0.003980638752 0.0040693438024 0.0042093514812 
0.0044050546688 0.0046597085961 0.004975054704 0.0053509914528 0.0057853061677 0.0062745527238 0.0068061294092 0.0073698610343 0.0079529747207 
0.0085403878446 0.0091151617755 0.0096591216714 0.010153632754 0.010580504682 0.010922975535 0.01116670938 0.011300727952 0.011318189468 
0.011216929517 0.010999693426 0.010674017328 0.010251753529 0.009748279011 0.009181466179 0.0085705232375 0.0079348199813 0.0072927994739 
0.0066610398175 0.0060534836067 0.0080991410598 0.0072977732981 0.0066265977592 0.0060674902944 0.0056018762736 0.0052122721301 0.0048829853406 
0.0046004665614 0.0043535675978 0.0041337439686 0.0039351114482 0.003754294029 0.0035901377657 0.0034434313623 0.003316687322 0.0032139190315 
0.003140342414 0.0031020118345 0.0031054444708 0.0031572530036 0.0032637631182 0.0034305992012 0.0036622555654 0.0039616835268 0.004329913206 
0.0047657214567 0.0052681274025 0.0058237295584 0.0064226314357 0.0070518424351 0.0076955383516 0.0083354796213 0.0089516168689 0.0095228884915 
0.01002819003 0.010447471692 0.010762898432 0.010959986981 0.011028619244 0.010963826374 0.010766247115 0.010442189526 0.010003265555 
0.0094656182361 0.0088488131953 0.0081745086643 0.007465040661 0.0067420556115 0.0060252922235 0.0053315680506 0.0076686456007 0.0068216968421 
0.0061134960561 0.0055239505091 0.0050324643734 0.0046195673478 0.0042677362078 0.0039618726673 0.0036896646279 0.0034418126883 0.0032120203081 
0.0029967548665 0.0027949247226 0.0026076048883 0.0024378101104 0.002290232373 0.0021709041337 0.002086824028 0.0020455859349 0.0020550041724 
0.0021227058759 0.0022556860149 0.0024598470346 0.0027395443258 0.0030971482361 0.0035326438471 0.0040477142071 0.0046288077697 0.0052664856865 
0.0059477090839 0.0066560372909 0.0073719700976 0.0080735083802 0.0087369507837 0.0093379154885 0.0098525511985 0.010258874961 0.0105381468 
0.010676166822 0.010664365688 0.010500560071 0.01018926483 0.0097414941695 0.0091740415843 0.008508294729 0.0077687031883 0.0069810599608 
0.0061707700123 0.0053612583425 0.0045726239626 0.0070801835726 0.0061925473036 0.0054510834316 0.004833856599 0.0043182441057 0.0038827424706 
0.0035079814039 0.0031773780279 0.0028775889015 0.0025986995216 0.0023341036104 0.0020801823031 0.0018359685028 0.0016028822965 0.0013844852408 
0.001186178968 0.0010148475416 0.0008784891386 0.00078585323769 0.00074605684755 0.00076815558766 0.00086067538252 0.0010311238186 0.0012854900951 
0.0016277314693 0.0020592387917 0.0025843171124 0.0031906217846 0.0038691710972 0.0046071151475 0.0053876240081 0.0061900746279 0.0069905258921 
0.0077624847369 0.0084779594953 0.0091087760037 0.0096281016556 0.010012086594 0.010241495611 0.01030317651 0.010191198488 0.0099075043142 
0.0094619574131 0.0088717289156 0.0081600528472 0.0073544647754 0.0064847108491 0.0055805521618 0.0046696838972 0.0037759440057 0.0063238071342 
0.0054009081711 0.0046304083807 0.0039885322409 0.0034505934469 0.002993060329 0.00259480642 0.0022379279188 0.0019082174524 0.001595253203 
0.0012921640169 0.00099526693697 0.00070374716051 0.0004193988196 0.00014634959708 -0.00010927251945 -0.00033970046949 -0.0005358816459 -0.00068783370768 
-0.00078503651103 -0.00081687449014 -0.00077311919455 -0.0006444404646 -0.00042294502814 -0.00010274550841 0.00031941976361 0.00084851033131 0.0014779616752 
0.0021976102507 0.0029953295541 0.0038542960684 0.0047530308841 0.0056657694364 0.0065631657898 0.0074133475634 0.0081833172555 0.008840660094 
0.0093554731538 0.0097023814471 0.0098624619614 0.0098248659419 0.0095879238825 0.0091595463287 0.0085568010244 0.0078046482044 0.0069339347587 
0.0059788591284 0.0049741942446 0.0039525750626 0.0029421167648 0.0053912632648 0.0044390100243 0.0036439384754 0.0029804577169 0.0024218778865 
0.0019427629476 0.0015204123696 0.0011357835375 0.00077391923283 0.00042392171186 7.8647989712e-05 -0.00026564677819 -0.00060960671322 -0.00095104829349 
-0.0012852733352 -0.0016054213198 -0.001902819581 -0.0021673183013 -0.0023876394334 -0.0025517706883 -0.0026474104734 -0.0026624560458 -0.0025855321676 
-0.0024065589112 -0.0021173366198 -0.0017120640077 -0.0011874876134 -0.00053938522089 0.00021914114137 0.0010774754845 0.0020193338993 0.0030227799092 
0.0040604764356 0.0051002870809 0.0061062881292 0.0070402187246 0.0078633537781 0.0085387290267 0.0090335835722 0.0093218195862 0.0093862233022 
0.0092201613429 0.008828478028 0.0082273841058 0.0074432458809 0.0065103406092 0.0054678077645 0.0043561552727 0.0032137381305 0.0020735970595 
0.0042760731025 0.0033006103166 0.0024854693161 0.0018033787171 0.0012258087497 0.00072561225653 0.00027870527882 -0.00013496387344 -0.00053106022537 
-0.00092096913223 -0.0013121154091 -0.0017082935872 -0.0021099624928 -0.0025145531323 -0.0029168149859 -0.0033091690605 -0.0036820356829 -0.004024148922 
-0.0043228948098 -0.0045646971236 -0.0047354537345 -0.0048210240761 -0.004807775241 -0.004683191457 -0.0044365365178 -0.0040595413556 -0.003547090603 
-0.0028889439669 -0.0020969397269 -0.001179968698 -0.00015325720502 0.00096131317558 0.002135236325 0.0033338079259 0.0045170287241 0.0056410457882 
0.0066601496993 0.0075292833004 0.0082069382865 0.0086582260326 0.0088578217803 0.0087924168028 0.0084622957466 0.0078817078839 0.0070778317936 
0.0060883322984 0.0049577397505 0.0037330875027 0.0024593626436 0.001175318548 0.0029734973763 0.0019810466254 0.001150356426 0.00045268469484 
-0.0001421308768 -0.00066274521925 -0.001134465341 -0.001578271056 -0.0020105216415 -0.0024430946416 -0.0028836872298 -0.0033361311897 -0.0038007110481 
-0.0042745117113 -0.0047517798823 -0.0052242593042 -0.005681489568 -0.0061110978222 -0.0064991189154 -0.0068303611056 -0.0070888233649 -0.0072581752054 
-0.0073223153481 -0.0072660210467 -0.0070756939852 -0.0067402232819 -0.0062520721516 -0.0055946112446 -0.0047776915215 -0.0038073129977 -0.0026968716944 
-0.0014675044809 -0.00014829374273 0.0012239130718 0.002605215796 0.0039460131791 0.0051930567093 0.006292202931 0.0071917674489 0.0078462678721 
0.0082202174258 0.0082915201793 0.0080539562947 0.0075182672705 0.0067114827304 0.005674372145 0.0044572191125 0.0031144263358 0.0016986717657 
0.00025537534591 0.0014806368423 0.00047745953563 -0.00036421607787 -0.001074370185 -0.0016845690138 -0.0022247666518 -0.0027213473958 -0.0031961513792 
-0.0036662114981 -0.0041438858393 -0.0046371367202 -0.0051498519404 -0.0056821976388 -0.0062309914984 -0.0067900568447 -0.0073505282521 -0.0079011193411 
-0.0084283882627 -0.0089170301069 -0.0093502107552 -0.0097099550764 -0.0099776097967 -0.010134403048 -0.010162115439 -0.010043870237 -0.0097650476976 
-0.0093143114622 -0.0086735805653 -0.0078441944936 -0.0068293633954 -0.0056399856549 -0.0042956276646 -0.0028251484902 -0.001266874277 0.00033182070998 
0.0019156713682 0.0034235337123 0.0047913049194 0.0059557025816 0.0068587130431 0.0074523498797 0.0077031938413 0.007596057767 0.0071360874032 
0.0063487205554 0.005277203474 0.0039777736102 0.0025130677572 0.00094466564074 -0.00067419938261 -0.0002033746904 -0.0012110509472 -0.0020591798448 
-0.0027787123935 -0.0034023451598 -0.0039611001743 -0.0044822918299 -0.0049885529552 -0.0054975660966 -0.0060221676413 -0.0065706120336 -0.0071469107258 
-0.0077512112999 -0.0083801741826 -0.0090273034223 -0.0096832188685 -0.010335892339 -0.010970880986 -0.0115715814 -0.0121195208 -0.012594706434 
-0.012976060855 -0.013241968759 -0.013370952629 -0.013342486696 -0.013137953409 -0.01274174941 -0.012135702029 -0.011309389549 -0.010262881401 
-0.0090034740709 -0.0075480876339 -0.0059243161645 -0.0041710281024 -0.002338344195 -0.00048679853542 0.0013145004664 0.00299083928 0.0044660239395 
0.0056675231515 0.0065322786062 0.0070125908208 0.0070812724937 0.0067351421682 0.0059959889262 0.0049084289288 0.0035345864579 0.0019461599486 
0.00021498520669 -0.0015965288813 -0.0020772693516 -0.0030834506837 -0.0039336929814 -0.0046595730684 -0.005294585914 -0.0058705731032 -0.0064156394033 
-0.0069531550901 -0.0075014467743 -0.0080738617667 -0.008679022113 -0.0093211768861 -0.010000588798 -0.010713896087 -0.011454412879 -0.012212367814 
-0.012975106162 -0.013727283333 -0.014451070817 -0.015126395639 -0.015731242067 -0.016242048522 -0.016634228454 -0.01688283602 -0.016963388837 
-0.016852839834 -0.016530613703 -0.015979308804 -0.015175096848 -0.014113722577 -0.012797654739 -0.011239922104 -0.0094655944139 -0.0075128692579 
-0.0054335527959 -0.0032926804824 -0.0011670150256 0.00085780540141 0.0026915982334 0.004245401734 0.0054383728898 0.0062051971573 0.0065030602253 
0.0063169857501 0.0056622983733 0.0045832345941 0.0031473279226 0.0014360379819 -0.00046707469155 -0.0024888327059 -0.0041377070862 -0.0051369046893 
-0.0059852684471 -0.0067145662793 -0.0073587222319 -0.0079501553012 -0.0085176434949 -0.0090852650494 -0.0096720197209 -0.010291845459 -0.010953857223 
-0.011662696775 -0.012418907119 -0.013219268029 -0.014057063489 -0.014922285923 -0.01580179975 -0.016679487598 -0.017536400584 -0.018350939308 
-0.019099100206 -0.019754823869 -0.020290477591 -0.020677500394 -0.020887238264 -0.020892000487 -0.020666390685 -0.020189109458 -0.019429495398 
-0.01837409263 -0.01701931534 -0.015372981295 -0.013456213861 -0.011305072188 -0.0089716431639 -0.0065242772718 -0.0040466178841 -0.001635083009 
0.0006054649102 0.0025679534732 0.0041510436834 0.0052681875179 0.0058567421528 0.0058856639732 0.0053600921287 0.0043213009606 0.0028411608787 
0.0010113324918 -0.0010713729985 -0.0033211813043 -0.0063794380092 -0.0073669363389 -0.0082099022702 -0.008939794359 -0.0095905866677 -0.010195052641 
-0.010782553249 -0.011377879077 -0.012000779637 -0.012665920411 -0.013383089447 -0.014157522238 -0.014990246516 -0.015878383682 -0.016815381169 
-0.017791179947 -0.018792335189 -0.019802110315 -0.020800567557 -0.021764686498 -0.022668549093 -0.023483629853 -0.02417922676 -0.024723067976 
-0.025082132423 -0.025223728801 -0.025116904003 -0.024734376319 -0.024045140993 -0.023020198464 -0.021649004934 -0.019932877007 -0.017887478561 
-0.015545054197 -0.012956239542 -0.010191074488 -0.0073387805459 -0.004505837553 -0.0018119335545 0.0006164906037 0.0026550820107 0.0041923127617 