# vtk DataFile Version 4.1
vtk output
ASCII
DATASET STRUCTURED_GRID
DIMENSIONS 51 51 1
POINTS 2601 float
0 0 0 0.02 0 0 0.04 0 0 
0.06 0 0 0.08 0 0 0.1 0 0 
0.12 0 0 0.14 0 0 0.16 0 0 
0.18 0 0 0.2 0 0 0.22 0 0 
0.24 0 0 0.26 0 0 0.28 0 0 
0.3 0 0 0.32 0 0 0.34 0 0 
0.36 0 0 0.38 0 0 0.4 0 0 
0.42 0 0 0.44 0 0 0.46 0 0 
0.48 0 0 0.5 0 0 0.52 0 0 
0.54 0 0 0.56 0 0 0.58 0 0 
0.6 0 0 0.62 0 0 0.64 0 0 
0.66 0 0 0.68 0 0 0.7 0 0 
0.72 0 0 0.74 0 0 0.76 0 0 
0.78 0 0 0.8 0 0 0.82 0 0 
0.84 0 0 0.86 0 0 0.88 0 0 
0.9 0 0 0.92 0 0 0.94 0 0 
0.96 0 0 0.98 0 0 1 0 0 
0 0.02 0 0.02 0.02 0 0.04 0.02 0 
0.06 0.02 0 0.08 0.02 0 0.1 0.02 0 
0.12 0.02 0 0.14 0.02 0 0.16 0.02 0 
0.18 0.02 0 0.2 0.02 0 0.22 0.02 0 
0.24 0.02 0 0.26 0.02 0 0.28 0.02 0 
0.3 0.02 0 0.32 0.02 0 0.34 0.02 0 
0.36 0.02 0 0.38 0.02 0 0.4 0.02 0 
0.42 0.02 0 0.44 0.02 0 0.46 0.02 0 
0.48 0.02 0 0.5 0.02 0 0.52 0.02 0 
0.54 0.02 0 0.56 0.02 0 0.58 0.02 0 
0.6 0.02 0 0.62 0.02 0 0.64 0.02 0 
0.66 0.02 0 0.68 0.02 0 0.7 0.02 0 
0.72 0.02 0 0.74 0.02 0 0.76 0.02 0 
0.78 0.02 0 0.8 0.02 0 0.82 0.02 0 
0.84 0.02 0 0.86 0.02 0 0.88 0.02 0 
0.9 0.02 0 0.92 0.02 0 0.94 0.02 0 
0.96 0.02 0 0.98 0.02 0 1 0.02 0 
0 0.04 0 0.02 0.04 0 0.04 0.04 0 
0.06 0.04 0 0.08 0.04 0 0.1 0.04 0 
0.12 0.04 0 0.14 0.04 0 0.16 0.04 0 
0.18 0.04 0 0.2 0.04 0 0.22 0.04 0 
0.24 0.04 0 0.26 0.04 0 0.28 0.04 0 
0.3 0.04 0 0.32 0.04 0 0.34 0.04 0 
0.36 0.04 0 0.38 0.04 0 0.4 0.04 0 
0.42 0.04 0 0.44 0.04 0 0.46 0.04 0 
0.48 0.04 0 0.5 0.04 0 0.52 0.04 0 
0.54 0.04 0 0.56 0.04 0 0.58 0.04 0 
0.6 0.04 0 0.62 0.04 0 0.64 0.04 0 
0.66 0.04 0 0.68 0.04 0 0.7 0.04 0 
0.72 0.04 0 0.74 0.04 0 0.76 0.04 0 
0.78 0.04 0 0.8 0.04 0 0.82 0.04 0 
0.84 0.04 0 0.86 0.04 0 0.88 0.04 0 
0.9 0.04 0 0.92 0.04 0 0.94 0.04 0 
0.96 0.04 0 0.98 0.04 0 1 0.04 0 
0 0.06 0 0.02 0.06 0 0.04 0.06 0 
0.06 0.06 0 0.08 0.06 0 0.1 0.06 0 
0.12 0.06 0 0.14 0.06 0 0.16 0.06 0 
0.18 0.06 0 0.2 0.06 0 0.22 0.06 0 
0.24 0.06 0 0.26 0.06 0 0.28 0.06 0 
0.3 0.06 0 0.32 0.06 0 0.34 0.06 0 
0.36 0.06 0 0.38 0.06 0 0.4 0.06 0 
0.42 0.06 0 0.44 0.06 0 0.46 0.06 0 
0.48 0.06 0 0.5 0.06 0 0.52 0.06 0 
0.54 0.06 0 0.56 0.06 0 0.58 0.06 0 
0.6 0.06 0 0.62 0.06 0 0.64 0.06 0 
0.66 0.06 0 0.68 0.06 0 0.7 0.06 0 
0.72 0.06 0 0.74 0.06 0 0.76 0.06 0 
0.78 0.06 0 0.8 0.06 0 0.82 0.06 0 
0.84 0.06 0 0.86 0.06 0 0.88 0.06 0 
0.9 0.06 0 0.92 0.06 0 0.94 0.06 0 
0.96 0.06 0 0.98 0.06 0 1 0.06 0 
0 0.08 0 0.02 0.08 0 0.04 0.08 0 
0.06 0.08 0 0.08 0.08 0 0.1 0.08 0 
0.12 0.08 0 0.14 0.08 0 0.16 0.08 0 
0.18 0.08 0 0.2 0.08 0 0.22 0.08 0 
0.24 0.08 0 0.26 0.08 0 0.28 0.08 0 
0.3 0.08 0 0.32 0.08 0 0.34 0.08 0 
0.36 0.08 0 0.38 0.08 0 0.4 0.08 0 
0.42 0.08 0 0.44 0.08 0 0.46 0.08 0 
0.48 0.08 0 0.5 0.08 0 0.52 0.08 0 
0.54 0.08 0 0.56 0.08 0 0.58 0.08 0 
0.6 0.08 0 0.62 0.08 0 0.64 0.08 0 
0.66 0.08 0 0.68 0.08 0 0.7 0.08 0 
0.72 0.08 0 0.74 0.08 0 0.76 0.08 0 
0.78 0.08 0 0.8 0.08 0 0.82 0.08 0 
0.84 0.08 0 0.86 0.08 0 0.88 0.08 0 
0.9 0.08 0 0.92 0.08 0 0.94 0.08 0 
0.96 0.08 0 0.98 0.08 0 1 0.08 0 
0 0.1 0 0.02 0.1 0 0.04 0.1 0 
0.06 0.1 0 0.08 0.1 0 0.1 0.1 0 
0.12 0.1 0 0.14 0.1 0 0.16 0.1 0 
0.18 0.1 0 0.2 0.1 0 0.22 0.1 0 
0.24 0.1 0 0.26 0.1 0 0.28 0.1 0 
0.3 0.1 0 0.32 0.1 0 0.34 0.1 0 
0.36 0.1 0 0.38 0.1 0 0.4 0.1 0 
0.42 0.1 0 0.44 0.1 0 0.46 0.1 0 
0.48 0.1 0 0.5 0.1 0 0.52 0.1 0 
0.54 0.1 0 0.56 0.1 0 0.58 0.1 0 
0.6 0.1 0 0.62 0.1 0 0.64 0.1 0 
0.66 0.1 0 0.68 0.1 0 0.7 0.1 0 
0.72 0.1 0 0.74 0.1 0 0.76 0.1 0 
0.78 0.1 0 0.8 0.1 0 0.82 0.1 0 
0.84 0.1 0 0.86 0.1 0 0.88 0.1 0 
0.9 0.1 0 0.92 0.1 0 0.94 0.1 0 
0.96 0.1 0 0.98 0.1 0 1 0.1 0 
0 0.12 0 0.02 0.12 0 0.04 0.12 0 
0.06 0.12 0 0.08 0.12 0 0.1 0.12 0 
0.12 0.12 0 0.14 0.12 0 0.16 0.12 0 
0.18 0.12 0 0.2 0.12 0 0.22 0.12 0 
0.24 0.12 0 0.26 0.12 0 0.28 0.12 0 
0.3 0.12 0 0.32 0.12 0 0.34 0.12 0 
0.36 0.12 0 0.38 0.12 0 0.4 0.12 0 
0.42 0.12 0 0.44 0.12 0 0.46 0.12 0 
0.48 0.12 0 0.5 0.12 0 0.52 0.12 0 
0.54 0.12 0 0.56 0.12 0 0.58 0.12 0 
0.6 0.12 0 0.62 0.12 0 0.64 0.12 0 
0.66 0.12 0 0.68 0.12 0 0.7 0.12 0 
0.72 0.12 0 0.74 0.12 0 0.76 0.12 0 
0.78 0.12 0 0.8 0.12 0 0.82 0.12 0 
0.84 0.12 0 0.86 0.12 0 0.88 0.12 0 
0.9 0.12 0 0.92 0.12 0 0.94 0.12 0 
0.96 0.12 0 0.98 0.12 0 1 0.12 0 
0 0.14 0 0.02 0.14 0 0.04 0.14 0 
0.06 0.14 0 0.08 0.14 0 0.1 0.14 0 
0.12 0.14 0 0.14 0.14 0 0.16 0.14 0 
0.18 0.14 0 0.2 0.14 0 0.22 0.14 0 
0.24 0.14 0 0.26 0.14 0 0.28 0.14 0 
0.3 0.14 0 0.32 0.14 0 0.34 0.14 0 
0.36 0.14 0 0.38 0.14 0 0.4 0.14 0 
0.42 0.14 0 0.44 0.14 0 0.46 0.14 0 
0.48 0.14 0 0.5 0.14 0 0.52 0.14 0 
0.54 0.14 0 0.56 0.14 0 0.58 0.14 0 
0.6 0.14 0 0.62 0.14 0 0.64 0.14 0 
0.66 0.14 0 0.68 0.14 0 0.7 0.14 0 
0.72 0.14 0 0.74 0.14 0 0.76 0.14 0 
0.78 0.14 0 0.8 0.14 0 0.82 0.14 0 
0.84 0.14 0 0.86 0.14 0 0.88 0.14 0 
0.9 0.14 0 0.92 0.14 0 0.94 0.14 0 
0.96 0.14 0 0.98 0.14 0 1 0.14 0 
0 0.16 0 0.02 0.16 0 0.04 0.16 0 
0.06 0.16 0 0.08 0.16 0 0.1 0.16 0 
0.12 0.16 0 0.14 0.16 0 0.16 0.16 0 
0.18 0.16 0 0.2 0.16 0 0.22 0.16 0 
0.24 0.16 0 0.26 0.16 0 0.28 0.16 0 
0.3 0.16 0 0.32 0.16 0 0.34 0.16 0 
0.36 0.16 0 0.38 0.16 0 0.4 0.16 0 
0.42 0.16 0 0.44 0.16 0 0.46 0.16 0 
0.48 0.16 0 0.5 0.16 0 0.52 0.16 0 
0.54 0.16 0 0.56 0.16 0 0.58 0.16 0 
0.6 0.16 0 0.62 0.16 0 0.64 0.16 0 
0.66 0.16 0 0.68 0.16 0 0.7 0.16 0 
0.72 0.16 0 0.74 0.16 0 0.76 0.16 0 
0.78 0.16 0 0.8 0.16 0 0.82 0.16 0 
0.84 0.16 0 0.86 0.16 0 0.88 0.16 0 
0.9 0.16 0 0.92 0.16 0 0.94 0.16 0 
0.96 0.16 0 0.98 0.16 0 1 0.16 0 
0 0.18 0 0.02 0.18 0 0.04 0.18 0 
0.06 0.18 0 0.08 0.18 0 0.1 0.18 0 
0.12 0.18 0 0.14 0.18 0 0.16 0.18 0 
0.18 0.18 0 0.2 0.18 0 0.22 0.18 0 
0.24 0.18 0 0.26 0.18 0 0.28 0.18 0 
0.3 0.18 0 0.32 0.18 0 0.34 0.18 0 
0.36 0.18 0 0.38 0.18 0 0.4 0.18 0 
0.42 0.18 0 0.44 0.18 0 0.46 0.18 0 
0.48 0.18 0 0.5 0.18 0 0.52 0.18 0 
0.54 0.18 0 0.56 0.18 0 0.58 0.18 0 
0.6 0.18 0 0.62 0.18 0 0.64 0.18 0 
0.66 0.18 0 0.68 0.18 0 0.7 0.18 0 
0.72 0.18 0 0.74 0.18 0 0.76 0.18 0 
0.78 0.18 0 0.8 0.18 0 0.82 0.18 0 
0.84 0.18 0 0.86 0.18 0 0.88 0.18 0 
0.9 0.18 0 0.92 0.18 0 0.94 0.18 0 
0.96 0.18 0 0.98 0.18 0 1 0.18 0 
0 0.2 0 0.02 0.2 0 0.04 0.2 0 
0.06 0.2 0 0.08 0.2 0 0.1 0.2 0 
0.12 0.2 0 0.14 0.2 0 0.16 0.2 0 
0.18 0.2 0 0.2 0.2 0 0.22 0.2 0 
0.24 0.2 0 0.26 0.2 0 0.28 0.2 0 
0.3 0.2 0 0.32 0.2 0 0.34 0.2 0 
0.36 0.2 0 0.38 0.2 0 0.4 0.2 0 
0.42 0.2 0 0.44 0.2 0 0.46 0.2 0 
0.48 0.2 0 0.5 0.2 0 0.52 0.2 0 
0.54 0.2 0 0.56 0.2 0 0.58 0.2 0 
0.6 0.2 0 0.62 0.2 0 0.64 0.2 0 
0.66 0.2 0 0.68 0.2 0 0.7 0.2 0 
0.72 0.2 0 0.74 0.2 0 0.76 0.2 0 
0.78 0.2 0 0.8 0.2 0 0.82 0.2 0 
0.84 0.2 0 0.86 0.2 0 0.88 0.2 0 
0.9 0.2 0 0.92 0.2 0 0.94 0.2 0 
0.96 0.2 0 0.98 0.2 0 1 0.2 0 
0 0.22 0 0.02 0.22 0 0.04 0.22 0 
0.06 0.22 0 0.08 0.22 0 0.1 0.22 0 
0.12 0.22 0 0.14 0.22 0 0.16 0.22 0 
0.18 0.22 0 0.2 0.22 0 0.22 0.22 0 
0.24 0.22 0 0.26 0.22 0 0.28 0.22 0 
0.3 0.22 0 0.32 0.22 0 0.34 0.22 0 
0.36 0.22 0 0.38 0.22 0 0.4 0.22 0 
0.42 0.22 0 0.44 0.22 0 0.46 0.22 0 
0.48 0.22 0 0.5 0.22 0 0.52 0.22 0 
0.54 0.22 0 0.56 0.22 0 0.58 0.22 0 
0.6 0.22 0 0.62 0.22 0 0.64 0.22 0 
0.66 0.22 0 0.68 0.22 0 0.7 0.22 0 
0.72 0.22 0 0.74 0.22 0 0.76 0.22 0 
0.78 0.22 0 0.8 0.22 0 0.82 0.22 0 
0.84 0.22 0 0.86 0.22 0 0.88 0.22 0 
0.9 0.22 0 0.92 0.22 0 0.94 0.22 0 
0.96 0.22 0 0.98 0.22 0 1 0.22 0 
0 0.24 0 0.02 0.24 0 0.04 0.24 0 
0.06 0.24 0 0.08 0.24 0 0.1 0.24 0 
0.12 0.24 0 0.14 0.24 0 0.16 0.24 0 
0.18 0.24 0 0.2 0.24 0 0.22 0.24 0 
0.24 0.24 0 0.26 0.24 0 0.28 0.24 0 
0.3 0.24 0 0.32 0.24 0 0.34 0.24 0 
0.36 0.24 0 0.38 0.24 0 0.4 0.24 0 
0.42 0.24 0 0.44 0.24 0 0.46 0.24 0 
0.48 0.24 0 0.5 0.24 0 0.52 0.24 0 
0.54 0.24 0 0.56 0.24 0 0.58 0.24 0 
0.6 0.24 0 0.62 0.24 0 0.64 0.24 0 
0.66 0.24 0 0.68 0.24 0 0.7 0.24 0 
0.72 0.24 0 0.74 0.24 0 0.76 0.24 0 
0.78 0.24 0 0.8 0.24 0 0.82 0.24 0 
0.84 0.24 0 0.86 0.24 0 0.88 0.24 0 
0.9 0.24 0 0.92 0.24 0 0.94 0.24 0 
0.96 0.24 0 0.98 0.24 0 1 0.24 0 
0 0.26 0 0.02 0.26 0 0.04 0.26 0 
0.06 0.26 0 0.08 0.26 0 0.1 0.26 0 
0.12 0.26 0 0.14 0.26 0 0.16 0.26 0 
0.18 0.26 0 0.2 0.26 0 0.22 0.26 0 
0.24 0.26 0 0.26 0.26 0 0.28 0.26 0 
0.3 0.26 0 0.32 0.26 0 0.34 0.26 0 
0.36 0.26 0 0.38 0.26 0 0.4 0.26 0 
0.42 0.26 0 0.44 0.26 0 0.46 0.26 0 
0.48 0.26 0 0.5 0.26 0 0.52 0.26 0 
0.54 0.26 0 0.56 0.26 0 0.58 0.26 0 
0.6 0.26 0 0.62 0.26 0 0.64 0.26 0 
0.66 0.26 0 0.68 0.26 0 0.7 0.26 0 
0.72 0.26 0 0.74 0.26 0 0.76 0.26 0 
0.78 0.26 0 0.8 0.26 0 0.82 0.26 0 
0.84 0.26 0 0.86 0.26 0 0.88 0.26 0 
0.9 0.26 0 0.92 0.26 0 0.94 0.26 0 
0.96 0.26 0 0.98 0.26 0 1 0.26 0 
0 0.28 0 0.02 0.28 0 0.04 0.28 0 
0.06 0.28 0 0.08 0.28 0 0.1 0.28 0 
0.12 0.28 0 0.14 0.28 0 0.16 0.28 0 
0.18 0.28 0 0.2 0.28 0 0.22 0.28 0 
0.24 0.28 0 0.26 0.28 0 0.28 0.28 0 
0.3 0.28 0 0.32 0.28 0 0.34 0.28 0 
0.36 0.28 0 0.38 0.28 0 0.4 0.28 0 
0.42 0.28 0 0.44 0.28 0 0.46 0.28 0 
0.48 0.28 0 0.5 0.28 0 0.52 0.28 0 
0.54 0.28 0 0.56 0.28 0 0.58 0.28 0 
0.6 0.28 0 0.62 0.28 0 0.64 0.28 0 
0.66 0.28 0 0.68 0.28 0 0.7 0.28 0 
0.72 0.28 0 0.74 0.28 0 0.76 0.28 0 
0.78 0.28 0 0.8 0.28 0 0.82 0.28 0 
0.84 0.28 0 0.86 0.28 0 0.88 0.28 0 
0.9 0.28 0 0.92 0.28 0 0.94 0.28 0 
0.96 0.28 0 0.98 0.28 0 1 0.28 0 
0 0.3 0 0.02 0.3 0 0.04 0.3 0 
0.06 0.3 0 0.08 0.3 0 0.1 0.3 0 
0.12 0.3 0 0.14 0.3 0 0.16 0.3 0 
0.18 0.3 0 0.2 0.3 0 0.22 0.3 0 
0.24 0.3 0 0.26 0.3 0 0.28 0.3 0 
0.3 0.3 0 0.32 0.3 0 0.34 0.3 0 
0.36 0.3 0 0.38 0.3 0 0.4 0.3 0 
0.42 0.3 0 0.44 0.3 0 0.46 0.3 0 
0.48 0.3 0 0.5 0.3 0 0.52 0.3 0 
0.54 0.3 0 0.56 0.3 0 0.58 0.3 0 
0.6 0.3 0 0.62 0.3 0 0.64 0.3 0 
0.66 0.3 0 0.68 0.3 0 0.7 0.3 0 
0.72 0.3 0 0.74 0.3 0 0.76 0.3 0 
0.78 0.3 0 0.8 0.3 0 0.82 0.3 0 
0.84 0.3 0 0.86 0.3 0 0.88 0.3 0 
0.9 0.3 0 0.92 0.3 0 0.94 0.3 0 
0.96 0.3 0 0.98 0.3 0 1 0.3 0 
0 0.32 0 0.02 0.32 0 0.04 0.32 0 
0.06 0.32 0 0.08 0.32 0 0.1 0.32 0 
0.12 0.32 0 0.14 0.32 0 0.16 0.32 0 
0.18 0.32 0 0.2 0.32 0 0.22 0.32 0 
0.24 0.32 0 0.26 0.32 0 0.28 0.32 0 
0.3 0.32 0 0.32 0.32 0 0.34 0.32 0 
0.36 0.32 0 0.38 0.32 0 0.4 0.32 0 
0.42 0.32 0 0.44 0.32 0 0.46 0.32 0 
0.48 0.32 0 0.5 0.32 0 0.52 0.32 0 
0.54 0.32 0 0.56 0.32 0 0.58 0.32 0 
[...]
CELL_DATA 2500
FIELD FieldData 1
pressure 1 2500 double
0.0061881224162 0.0061205105159 0.0059267555975 0.005647869126 0.005326368461 0.0049965043247 0.0046832358352 0.0044037436437 0.0041694235334 
0.0039876576682 0.0038631955911 0.0037991413821 0.0037975903407 0.0038599793059 0.0039872305657 0.0041797710824 0.0044374905294 0.0047596726802 
0.0051449094313 0.0055909927603 0.006094778733 0.0066520260487 0.0072572226878 0.007903421989 0.0085821080654 0.0092830986381 0.0099941204065 
0.01070197191 0.011392720916 0.012051828921 0.012664582649 0.013216623267 0.013694539746 0.014086494003 0.014382843191 0.014576722438 
0.014664551585 0.01464643314 0.014526416241 0.01431261271 0.014017165452 0.013656085005 0.013248983792 0.012818743662 0.012391149197 
0.011994388259 0.011658288801 0.011412392465 0.011280787424 0.011268380031 0.0062530547855 0.0061835697874 0.0060186233723 0.0057895283026 
0.0055258177977 0.0052526008759 0.004989732868 0.0047522232995 0.004551078735 0.0043941866188 0.0042870943937 0.0042336339909 0.0042363844994 
0.0042969944644 0.0044163978247 0.0045949504888 0.0048324985649 0.0051283791974 0.0054813552043 0.0058894916418 0.0063499917411 0.0068590165754 
0.0074115151836 0.0080010894663 0.0086199131566 0.0092587246288 0.0099059406254 0.010549576263 0.011177054207 0.011775286456 0.012331088388 
0.012831661898 0.013265130154 0.013621097657 0.013891204292 0.014069639622 0.014153583987 0.014143546506 0.014043576883 0.013861337605 
0.013608034631 0.013298216167 0.012949456957 0.012581944511 0.012217964783 0.011881232858 0.011595873449 0.011384848089 0.011267322801 
0.011255962952 0.0064437394304 0.0063446155241 0.0061794876387 0.0059698120301 0.0057358561035 0.0054959363018 0.0052656858566 0.0050577679383 
0.0048819610284 0.0047454939682 0.0046535032276 0.0046095053172 0.0046158202783 0.0046739202654 0.0047846922616 0.0049486036948 0.0051657628626 
0.0054358793998 0.0057581454538 0.0061310682417 0.0065522868957 0.0070184015248 0.0075248347222 0.0080657381933 0.0086339537335 0.0092210413977 
0.0098158965816 0.010407551502 0.010984473278 0.011534645092 0.012045960843 0.012506681565 0.012905938068 0.01323425529 0.013484068338 
0.013650197471 0.013730249368 0.013724915216 0.013638142461 0.013477165997 0.013252395193 0.012977163472 0.012667354234 0.012340917801 
0.012017284734 0.011716660381 0.011459158463 0.011263809254 0.011147666502 0.011126166091 0.0067266952807 0.0065757551352 0.0063866523373 
0.0061723317673 0.0059464942548 0.0057223933487 0.0055118146701 0.0053244690916 0.0051678532644 0.0050474624638 0.0049671793179 0.0049296957044 
0.0049368896343 0.0049901219954 0.0050904328543 0.0052386249114 0.0054352384608 0.005680442002 0.0059738734228 0.0063144658707 0.0067002835799 
0.0071283819077 0.007594698114 0.0080939765115 0.0086197339884 0.009164277785 0.0097169029999 0.010267438796 0.010805103052 0.011318601637 
0.011796509643 0.012227715509 0.01260191051 0.012910098853 0.013145098419 0.013301999045 0.0133785448 0.013375409514 0.013296340814 
0.01314815695 0.012940591772 0.012685994294 0.012398898767 0.012095486887 0.011792964868 0.011508877796 0.011260394224 0.011063651693 
0.010933374275 0.010883209186 0.0070626063497 0.0068455012292 0.0066158487233 0.006380778554 0.0061489771776 0.0059291227195 0.0057288774472 
0.005554414998 0.0054104087329 0.0053002864313 0.0052265656105 0.00519116272 0.0051956366714 0.0052413530239 0.0053295590712 0.0054613685619 
0.0056376720915 0.0058590013273 0.0061253748509 0.0064361448687 0.0067898538993 0.0071841046454 0.0076154456586 0.0080792788924 0.0085698002266 
0.0090799882708 0.0095994855417 0.010118671965 0.010627254725 0.011114359114 0.011568903234 0.011980038925 0.012337640348 0.012632815107 
0.012858407213 0.01300945721 0.013083583635 0.013081252386 0.013005906529 0.012863938827 0.012664501481 0.012419160778 0.012141417098 
0.01184612108 0.011548824014 0.011265106414 0.011009937291 0.010797133318 0.010639004648 0.010546207861 0.0074152023715 0.0071250247906 
0.0068460948548 0.0065813568445 0.0063349335512 0.006110942708 0.0059128835795 0.0057434802883 0.0056048029389 0.0054984773372 0.0054258743304 
0.0053882505827 0.005386844197 0.0054229235974 0.0054977813779 0.005612672916 0.0057687126873 0.0059667450828 0.0062072015406 0.0064899495122 
0.0068141359033 0.0071780298347 0.0075788738043 0.0080127564904 0.0084745227279 0.008957736242 0.009452354754 0.0099490608374 0.010437838653 
0.010907985651 0.011348483648 0.01174844174 0.012097592728 0.012386817481 0.012608664964 0.012757830603 0.012831553842 0.012829897657 
0.012755879056 0.012615430146 0.012417183217 0.012172089073 0.011892893911 0.011593513994 0.011288357506 0.010991648338 0.010716805371 
0.010475919238 0.010279330324 0.010135191179 0.0077548191909 0.0073905789935 0.0070592505799 0.0067600715893 0.0064928704938 0.0062576128915 
0.0060542160534 0.0058825771089 0.0057426664252 0.0056345983302 0.0055586694295 0.0055153858738 0.0055054868021 0.005529949503 0.0055899586652 
0.0056868346598 0.0058219262598 0.0059964739429 0.0062114473275 0.0064673606076 0.0067640736235 0.0071005912075 0.0074748763238 0.0078836926864 
0.0083224911534 0.0087853520455 0.0092625658266 0.0097448889741 0.010222424127 0.010684445542 0.011119767295 0.011517192274 0.011866024016 
0.012156614963 0.012380916601 0.01253299103 0.012609440821 0.012609715484 0.012536259221 0.012394476099 0.012192504245 0.011940809228 
0.011651625945 0.011338295185 0.011014552862 0.010693833486 0.010388641116 0.010110015949 0.0098670733161 0.0096665008895 0.0080580936438 
0.0076218515291 0.0072374280458 0.0069006902408 0.0066078494112 0.0063555463804 0.0061408938775 0.0059615154448 0.0058155465992 0.005701613222 
0.0056188220695 0.0055667761119 0.0055455955708 0.0055559141616 0.0055988313114 0.0056758177181 0.0057885786801 0.0059388793125 0.0061283365511 
0.0063581870732 0.0066290451351 0.0069406666869 0.0072917350578 0.0076796806759 0.0081005453414 0.0085489007226 0.0090154562957 0.0094908334895 
0.0099651392779 0.010427469324 0.010866274191 0.011269818043 0.011626712081 0.011926495269 0.012160225727 0.012321039232 0.012404627512 
0.012409589608 0.012337615806 0.012193475534 0.011984797771 0.011721653618 0.011415972846 0.011080845958 0.010729776909 0.010375954492 
0.010031598955 0.0097074110876 0.0094121013168 0.009151908321 0.0083052857164 0.0077996892003 0.0073621811391 0.0069858968844 0.0066642460755 
0.0063912397782 0.0061616258334 0.0059709245409 0.0058154233262 0.005692182063 0.0055990674124 0.0055347962727 0.00549895264 0.0054919526639 
0.0055149527871 0.0055697079324 0.0056583871008 0.0057833519003 0.0059469057424 0.0061510257411 0.006397091916 0.0066856274722 0.0070160611682 
0.007386520829 0.0077936673713 0.0082325801699 0.0086945409868 0.0091698378682 0.0096485027762 0.010119330848 0.010570244598 0.010988763698 
0.011362563221 0.011680092648 0.011931217722 0.012107838963 0.012204435218 0.012218479948 0.012150683336 0.012005025303 0.011788562987 
0.011511019692 0.011184187517 0.010821198911 0.010435738412 0.01004126976 0.0096503417267 0.0092740062744 0.0089213363521 0.0085989746122 
0.0084780272912 0.0079056351202 0.0074158262924 0.0069995943897 0.0066479900103 0.0063526247478 0.0061059322155 0.0059013009808 0.0057331666847 
0.0055971005468 0.0054898851781 0.0054095480546 0.0053553311516 0.0053275953993 0.0053276721738 0.0053576741931 0.0054202720861 0.0055184407378 
0.0056551824566 0.005833237194 0.0060547908008 0.0063211909183 0.006632678912 0.0069881472823 0.0073849343949 0.0078186704244 0.0082814242792 
0.0087629646093 0.0092532050453 0.0097405551654 0.010212278996 0.010654973134 0.011055149321 0.011399894819 0.011677572501 0.011878512366 
0.01199563857 0.012024973353 0.011965963156 0.011821583631 0.011598199502 0.011305180754 0.010954304991 0.010559002759 0.01013352216 
0.0096920957684 0.009248182547 0.0088138288688 0.0083991488856 0.0080118742592 0.008558904169 0.0079227604147 0.0073826694607 0.006927643883 
0.0065463715346 0.0062280092606 0.0059626533808 0.0057416337034 0.0055577139642 0.0054052232659 0.00528011229 0.0051799280397 0.0051037157533 
0.0050518671968 0.0050259327576 0.0050284050157 0.0050624742621 0.0051317567711 0.0052400005322 0.0053907756545 0.0055871572406 0.0058314086426 
0.0061246744513 0.0064666957342 0.0068555629105 0.0072875227498 0.0077557125675 0.0082492255867 0.0087578590487 0.0092695967791 0.0097709527504 
0.010247450598 0.010684226763 0.011066732988 0.01138150114 0.011616920696 0.011763968868 0.011816827884 0.011773325301 0.011635143197 
0.011407761287 0.011100126024 0.01072406956 0.010293533898 0.0098236802014 0.009329974413 0.0088273335527 0.0083293906674 0.0078478944741 
0.0073922118371 0.0085320365928 0.0078360961992 0.0072487655905 0.0067569077741 0.0063467279638 0.006004925913 0.0057193888469 0.0054796166058 
0.0052769684546 0.0051047728466 0.0049583245789 0.0048347958001 0.0047330898044 0.0046536602323 0.004598305723 0.0045699391717 0.0045723278628 
0.0046098042726 0.0046869512347 0.0048082669858 0.0049778166706 0.0051988786322 0.0054735969029 0.0058026548953 0.0061849882082 0.0066175573316 
0.0070949358104 0.0076054301659 0.008138779228 0.0086825530937 0.0092224673645 0.0097428543523 0.010227280171 0.010659287423 0.01102322917 
0.011305144517 0.011493612349 0.011580510486 0.011561605205 0.011436903181 0.011210715745 0.010891413281 0.010490882621 0.010023737358 
0.0095063623074 0.0089558916433 0.0083892192191 0.0078221172873 0.0072685001205 0.0067398221023 0.0083832705771 0.0076321124578 0.0070009407395 
0.0064743275566 0.0060360291603 0.0056704423678 0.0053634673266 0.0051030016679 0.0048791835063 0.0046844589047 0.0045135305391 0.0043632328469 
0.0042323648495 0.0041214956071 0.0040327441548 0.003969529988 0.0039362917298 0.0039381754419 0.0039806959915 0.0040693756533 0.0042093656022 
0.0044050586112 0.0046597047543 0.0049750450195 0.0053509806002 0.0057852988176 0.0062745501792 0.0068061301263 0.0073698633537 0.0079529781517 
0.0085403923115 0.0091151667847 0.0096591265246 0.010153637124 0.010580508688 0.010922979385 0.011166713142 0.011300731645 0.011318193181 
0.011216933338 0.01099969732 0.010674021148 0.010251757122 0.0097482822941 0.0091814691195 0.0085705257995 0.0079348221303 0.0072928012093 
0.0066610411737 0.0060534846311 0.0080997008394 0.0072980374704 0.0066263991262 0.0060671227566 0.0056016738708 0.005212324642 0.0048831439662 
0.0046005365326 0.004353482183 0.0041335816137 0.0039349836665 0.0037542435093 0.0035901383333 0.003443450882 0.0033167226161 0.0032139765279 
0.0031404111598 0.0031020680317 0.003105473886 0.0031572593139 0.003263757319 0.0034305885311 0.0036622431247 0.0039616724438 0.0043299069137 
0.0047657209494 0.0052681306431 0.0058237338586 0.0064226355435 0.0070518463458 0.007695542096 0.0083354828784 0.0089516194438 0.009522890628 
0.010028192152 0.010447474029 0.010762900979 0.010959989705 0.011028622174 0.010963829501 0.01076625032 0.010442192631 0.010003268425 
0.009465620814 0.0088488154506 0.0081745105508 0.0074650421386 0.0067420566724 0.0060252928892 0.0053315683494 0.0076692211822 0.0068218007725 
0.0061131811907 0.005523606837 0.0050323728761 0.0046197105702 0.0042679073229 0.0039619060071 0.00368956246 0.0034416878216 0.0032119607102 
0.0029967607816 0.0027949517436 0.0026076284481 0.0024378361622 0.0022902671061 0.0021709369253 0.0020868405179 0.002045584488 0.0020549941621 
0.0021226958596 0.0022556785496 0.0024598421524 0.0027395428215 0.0030971506152 0.0035326486371 0.0040477189257 0.0046288110399 0.0052664877228 
0.0059477105364 0.0066560383281 0.0073719706219 0.0080735085735 0.0087369511182 0.0093379163251 0.0098525525616 0.010258876693 0.010538148794 
0.010676169048 0.010664368083 0.010500562495 0.010189267141 0.0097414962794 0.0091740434533 0.0085082963102 0.0077687044117 0.0069810607706 
0.0061707703904 0.0053612582988 0.0045726235122 0.0070806256442 0.0061924943986 0.0054507534108 0.0048336341613 0.0043182933273 0.0038829443423 
0.0035081259228 0.0031773749256 0.0028775066346 0.0025986475351 0.0023341173537 0.0020802208935 0.0018359867904 0.001602876207 0.0013844749308 
0.0011861748504 0.0010148442623 0.00087848150235 0.00078584487715 0.00074605365665 0.00076815813274 0.00086068014591 0.0010311282923 0.0012854940991 
0.0016277350045 0.0020592409567 0.0025843172299 0.003190620359 0.003869169221 0.0046071134009 0.0053876223193 0.0061900729179 0.0069905244454 
0.0077624839411 0.0084779594591 0.0091087765352 0.0096281025245 0.010012087704 0.01024149694 0.010303177998 0.010191200022 0.0099075057919 
0.0094619587691 0.0088717300923 0.0081600537618 0.007354465332 0.0064847109809 0.0055805518433 0.0046696831283 0.00377594279 0.0063240612321 
0.005400761783 0.0046301467579 0.0039884552882 0.003450738654 0.0029932584286 0.0025949006978 0.0022379117468 0.0019081858566 0.0015952720604 
0.0012922131681 0.00099529095888 0.00070372492989 0.00041935332697 0.00014631068315 -0.00010929513087 -0.00033971146606 -0.0005358845707 -0.00068782814804 
-0.00078502432436 -0.00081686153537 -0.00077311064814 -0.00064443736163 -0.00042294573831 -0.00010274860515 0.00031941489101 0.00084850448412 0.0014779559309 
0.0021976053615 0.0029953254574 0.0038542923788 0.0047530275338 0.0056657666993 0.0065631638714 0.0074133463646 0.0081833165206 0.008840659664 
0.0093554730171 0.0097023816156 0.00986246238 0.0098248665073 0.0095879244974 0.0091595469131 0.0085568014848 0.0078046484231 0.0069339346232 
0.0059788585645 0.0049741932179 0.0039525735599 0.0029421147768 0.0053913543498 0.004438838692 0.0036437801022 0.00298049599 0.0024220553131 
0.0019429157404 0.0015204599043 0.0011357744535 0.00077393265967 0.00042397009554 7.8683408327e-05 -0.00026566195283 -0.00060966082227 -0.00095110373638 
-0.0012853061546 -0.0016054315229 -0.0019028160667 -0.0021673066654 -0.0023876232311 -0.002551755527 -0.0026474021485 -0.0026624563261 -0.0025855385778 
-0.0024065680606 -0.0021173465575 -0.0017120739258 -0.0011874968387 -0.00053939320442 0.00021913438971 0.0010774694773 0.0020193282729 0.003022774736 
0.0040604719687 0.0051002833909 0.0061062850629 0.00704021612 0.0078633516136 0.0085387273564 0.0090335823966 0.0093218188176 0.0093862228172 
0.0092201610286 0.0088284777776 0.0082273837922 0.0074432453605 0.006510339756 0.0054678064934 0.0043561535338 0.0032137358934 0.0020735943008 
0.0042760584968 0.0033004655922 0.0024854141683 0.001803482764 0.0012259641704 0.00072569838213 0.00027871140686 -0.00013496859275 -0.0005310306868 
-0.00092092771691 -0.0013121063992 -0.0017083261295 -0.0021100078262 -0.0025145813741 -0.0029168197088 -0.0033091604011 -0.0036820233191 -0.0040241367167 
-0.0043228853347 -0.004564693992 -0.0047354587859 -0.0048210352903 -0.0048077887314 -0.0046832045994 -0.0044365487016 -0.0040595527278 -0.0035471011139 
-0.0028889535443 -0.0020969485865 -0.0011799771821 -0.00015326538605 0.00096130551735 0.0021352294044 0.0033338017645 0.0045170232391 0.0056410409588 
0.0066601455908 0.007529279954 0.0082069356426 0.0086582239591 0.0088578201367 0.0087924154642 0.0084622945828 0.007881706738 0.0070778304982 
0.0060883307103 0.004957737767 0.0037330850533 0.0024593596784 0.0011753150286 0.0029734360176 0.0019809575337 0.0011503780692 0.00045279742741 
-0.00014203893467 -0.00066273250133 -0.001134492369 -0.0015782737414 -0.0020104878213 -0.0024430599062 -0.0028836803278 -0.0033361449332 -0.0038007214726 
-0.004274507849 -0.0047517688138 -0.0052242513423 -0.0056814876597 -0.0061111000669 -0.0064991245192 -0.0068303708602 -0.0070888367166 -0.0072581896571 
-0.0073223287418 -0.0072660331769 -0.0070757058215 -0.0067402354447 -0.0062520844997 -0.0055946234286 -0.0047777034415 -0.0038073246561 -0.0026968829503 
-0.0014675150892 -0.00014830353623 0.0012239041364 0.0026052077374 0.0039460060632 0.0051930506023 0.0062921978139 0.0071917632095 0.0078462643628 
0.0082202145099 0.0082915177255 0.008053954148 0.0075182652437 0.0067114806311 0.0056743698094 0.0044572164161 0.0031144231841 0.0016986680875 
0.00025537108631 0.0014805737405 0.00047742742838 -0.00036416275478 -0.0010742967948 -0.0016845529116 -0.0022248056799 -0.0027213804358 -0.0031961374503 
-0.0036661648541 -0.0041438432704 -0.0046371143703 -0.005149840576 -0.0056821860878 -0.0062309813929 -0.0067900558086 -0.0073505379375 -0.007901134285 
-0.0084284029672 -0.0089170432924 -0.0093502233878 -0.0097099673217 -0.0099776210534 -0.0101344136 -0.010162126679 -0.010043883298 -0.0097650624903 
-0.0093143270799 -0.0086735961968 -0.0078442098119 -0.0068293783005 -0.005639999999 -0.0042956412456 -0.0028251611524 -0.0012668859264 0.00033181015751 
0.0019156619972 0.0034235255546 0.0047912979164 0.0059556966133 0.0068587079798 0.0074523455971 0.0077031901974 0.0075960545781 0.0071360844532 
0.0063487176294 0.0052772003862 0.0039777702106 0.0025130639242 0.00094466127909 -0.00067420434618 -0.00020341573902 -0.0012110452285 -0.0020591338336 
-0.0027786914698 -0.0034023770688 -0.0039611462386 -0.0044823001957 -0.0049885139851 -0.0054975097373 -0.0060221237538 -0.0065705870126 -0.0071468970394 
-0.0077512053533 -0.0083801791433 -0.0090273202289 -0.0096832414867 -0.010335912718 -0.01097089561 -0.011571591799 -0.012119529674 -0.012594715155 
-0.012976070117 -0.013241979729 -0.013370966493 -0.01334250353 -0.01313797207 -0.012741768517 -0.012135720772 -0.011309407803 -0.01026289917 
-0.0090034912373 -0.0075481039865 -0.0059243315167 -0.0041710423203 -0.0023383571687 -0.00048681018106 0.0013144901689 0.0029908302774 0.0044660161389 
0.0056675164506 0.0065322728875 0.0070125859258 0.0070812682134 0.0067351382642 0.0059959851643 0.0049084250995 0.0035345823812 0.0019461554723 
0.00021498020953 -0.0015965344932 -0.0020772821851 -0.00308342747 -0.0039336664867 -0.0046595829089 -0.0052946229583 -0.0058705948955 -0.0064156211678 
-0.0069531106182 -0.007501405255 -0.0080738384349 -0.0086790139963 -0.0093211771125 -0.010000596277 -0.010713912054 -0.011454434252 -0.012212387739 
-0.012975119992 -0.013727291844 -0.01445107771 -0.015126403662 -0.015731252077 -0.016242060881 -0.016634243811 -0.016882854595 -0.016963409753 
-0.016852861608 -0.016530635257 -0.015979329856 -0.015175117535 -0.014113742922 -0.012797674532 -0.011239941064 -0.0094656123254 -0.0075128859708 
-0.0054335681836 -0.0032926944457 -0.0011670275256 0.00085779434118 0.0026915885541 0.0042453933548 0.0054383656935 0.0062051909717 0.006503054825 
0.0063169808824 0.0056622937865 0.0045832300518 0.0031473232117 0.0014360329178 -0.00046708025749 -0.0024888388898 -0.0041376946774 -0.0051368755081 
-0.0059852547981 -0.006714580924 -0.0073587435344 -0.0079501573495 -0.0085176247953 -0.009085243861 -0.009672010734 -0.010291848157 -0.010953863547 
-0.011662702826 -0.012418915023 -0.013219279739 -0.014057076763 -0.014922297013 -0.015801807894 -0.0166794954 -0.017536410792 -0.018350952591 
-0.019099115933 -0.019754841731 -0.020290497767 -0.020677522644 -0.020887261627 -0.020892023959 -0.020666413881 -0.020189132512 -0.019429518466 
-0.018374115516 -0.017019337675 -0.015373002757 -0.013456234242 -0.011305091334 -0.0089716609246 -0.0065242935207 -0.0040466325559 -0.0016350960975 
0.00060545337407 0.0025679434241 0.0041510350061 0.0052681800352 0.0058567356337 0.0058856581572 0.0053600867472 0.0043212957497 0.0028411555916 
0.0010113269119 -0.0010713790479 -0.0033211879631 -0.006379410276 -0.0073669101934 -0.0082098965798 -0.0089398057033 -0.0095905979471 -0.010195055465 
-0.010782553982 -0.011377886196 -0.012000792249 -0.012665930525 -0.013383091864 -0.014157519546 -0.014990245104 -0.015878387104 -0.016815388456 
-0.017791189114 -0.018792346303 -0.019802124684 -0.020800585366 -0.021764706439 -0.022668569942 -0.023483651494 -0.024179249579 -0.024723091909 
-0.025082156943 -0.025223753538 -0.025116928998 -0.024734401708 -0.024045166583 -0.023020223831 -0.021649029647 -0.019932900788 -0.017887501237 
-0.015545075606 -0.012956259508 -0.010191092862 -0.0073387972457 -0.004505852548 -0.0018119468527 0.00061647895244 0.002655071899 0.0041923040181 