# vtk DataFile Version 4.1
vtk output
ASCII
DATASET STRUCTURED_GRID
DIMENSIONS 51 51 1
POINTS 2601 float
0 0 0 0.02 0 0 0.04 0 0 
0.06 0 0 0.08 0 0 0.1 0 0 
0.12 0 0 0.14 0 0 0.16 0 0 
0.18 0 0 0.2 0 0 0.22 0 0 
0.24 0 0 0.26 0 0 0.28 0 0 
0.3 0 0 0.32 0 0 0.34 0 0 
0.36 0 0 0.38 0 0 0.4 0 0 
0.42 0 0 0.44 0 0 0.46 0 0 
0.48 0 0 0.5 0 0 0.52 0 0 
0.54 0 0 0.56 0 0 0.58 0 0 
0.6 0 0 0.62 0 0 0.64 0 0 
0.66 0 0 0.68 0 0 0.7 0 0 
0.72 0 0 0.74 0 0 0.76 0 0 
0.78 0 0 0.8 0 0 0.82 0 0 
0.84 0 0 0.86 0 0 0.88 0 0 
0.9 0 0 0.92 0 0 0.94 0 0 
0.96 0 0 0.98 0 0 1 0 0 
0 0.02 0 0.02 0.02 0 0.04 0.02 0 
0.06 0.02 0 0.08 0.02 0 0.1 0.02 0 
0.12 0.02 0 0.14 0.02 0 0.16 0.02 0 
0.18 0.02 0 0.2 0.02 0 0.22 0.02 0 
0.24 0.02 0 0.26 0.02 0 0.28 0.02 0 
0.3 0.02 0 0.32 0.02 0 0.34 0.02 0 
0.36 0.02 0 0.38 0.02 0 0.4 0.02 0 
0.42 0.02 0 0.44 0.02 0 0.46 0.02 0 
0.48 0.02 0 0.5 0.02 0 0.52 0.02 0 
0.54 0.02 0 0.56 0.02 0 0.58 0.02 0 
0.6 0.02 0 0.62 0.02 0 0.64 0.02 0 
0.66 0.02 0 0.68 0.02 0 0.7 0.02 0 
0.72 0.02 0 0.74 0.02 0 0.76 0.02 0 
0.78 0.02 0 0.8 0.02 0 0.82 0.02 0 
0.84 0.02 0 0.86 0.02 0 0.88 0.02 0 
0.9 0.02 0 0.92 0.02 0 0.94 0.02 0 
0.96 0.02 0 0.98 0.02 0 1 0.02 0 
0 0.04 0 0.02 0.04 0 0.04 0.04 0 
0.06 0.04 0 0.08 0.04 0 0.1 0.04 0 
0.12 0.04 0 0.14 0.04 0 0.16 0.04 0 
0.18 0.04 0 0.2 0.04 0 0.22 0.04 0 
0.24 0.04 0 0.26 0.04 0 0.28 0.04 0 
0.3 0.04 0 0.32 0.04 0 0.34 0.04 0 
0.36 0.04 0 0.38 0.04 0 0.4 0.04 0 
0.42 0.04 0 0.44 0.04 0 0.46 0.04 0 
0.48 0.04 0 0.5 0.04 0 0.52 0.04 0 
0.54 0.04 0 0.56 0.04 0 0.58 0.04 0 
0.6 0.04 0 0.62 0.04 0 0.64 0.04 0 
0.66 0.04 0 0.68 0.04 0 0.7 0.04 0 
0.72 0.04 0 0.74 0.04 0 0.76 0.04 0 
0.78 0.04 0 0.8 0.04 0 0.82 0.04 0 
0.84 0.04 0 0.86 0.04 0 0.88 0.04 0 
0.9 0.04 0 0.92 0.04 0 0.94 0.04 0 
0.96 0.04 0 0.98 0.04 0 1 0.04 0 
0 0.06 0 0.02 0.06 0 0.04 0.06 0 
0.06 0.06 0 0.08 0.06 0 0.1 0.06 0 
0.12 0.06 0 0.14 0.06 0 0.16 0.06 0 
0.18 0.06 0 0.2 0.06 0 0.22 0.06 0 
0.24 0.06 0 0.26 0.06 0 0.28 0.06 0 
0.3 0.06 0 0.32 0.06 0 0.34 0.06 0 
0.36 0.06 0 0.38 0.06 0 0.4 0.06 0 
0.42 0.06 0 0.44 0.06 0 0.46 0.06 0 
0.48 0.06 0 0.5 0.06 0 0.52 0.06 0 
0.54 0.06 0 0.56 0.06 0 0.58 0.06 0 
0.6 0.06 0 0.62 0.06 0 0.64 0.06 0 
0.66 0.06 0 0.68 0.06 0 0.7 0.06 0 
0.72 0.06 0 0.74 0.06 0 0.76 0.06 0 
0.78 0.06 0 0.8 0.06 0 0.82 0.06 0 
0.84 0.06 0 0.86 0.06 0 0.88 0.06 0 
0.9 0.06 0 0.92 0.06 0 0.94 0.06 0 
0.96 0.06 0 0.98 0.06 0 1 0.06 0 
0 0.08 0 0.02 0.08 0 0.04 0.08 0 
0.06 0.08 0 0.08 0.08 0 0.1 0.08 0 
0.12 0.08 0 0.14 0.08 0 0.16 0.08 0 
0.18 0.08 0 0.2 0.08 0 0.22 0.08 0 
0.24 0.08 0 0.26 0.08 0 0.28 0.08 0 
0.3 0.08 0 0.32 0.08 0 0.34 0.08 0 
0.36 0.08 0 0.38 0.08 0 0.4 0.08 0 
0.42 0.08 0 0.44 0.08 0 0.46 0.08 0 
0.48 0.08 0 0.5 0.08 0 0.52 0.08 0 
0.54 0.08 0 0.56 0.08 0 0.58 0.08 0 
0.6 0.08 0 0.62 0.08 0 0.64 0.08 0 
0.66 0.08 0 0.68 0.08 0 0.7 0.08 0 
0.72 0.08 0 0.74 0.08 0 0.76 0.08 0 
0.78 0.08 0 0.8 0.08 0 0.82 0.08 0 
0.84 0.08 0 0.86 0.08 0 0.88 0.08 0 
0.9 0.08 0 0.92 0.08 0 0.94 0.08 0 
0.96 0.08 0 0.98 0.08 0 1 0.08 0 
0 0.1 0 0.02 0.1 0 0.04 0.1 0 
0.06 0.1 0 0.08 0.1 0 0.1 0.1 0 
0.12 0.1 0 0.14 0.1 0 0.16 0.1 0 
0.18 0.1 0 0.2 0.1 0 0.22 0.1 0 
0.24 0.1 0 0.26 0.1 0 0.28 0.1 0 
0.3 0.1 0 0.32 0.1 0 0.34 0.1 0 
0.36 0.1 0 0.38 0.1 0 0.4 0.1 0 
0.42 0.1 0 0.44 0.1 0 0.46 0.1 0 
0.48 0.1 0 0.5 0.1 0 0.52 0.1 0 
0.54 0.1 0 0.56 0.1 0 0.58 0.1 0 
0.6 0.1 0 0.62 0.1 0 0.64 0.1 0 
0.66 0.1 0 0.68 0.1 0 0.7 0.1 0 
0.72 0.1 0 0.74 0.1 0 0.76 0.1 0 
0.78 0.1 0 0.8 0.1 0 0.82 0.1 0 
0.84 0.1 0 0.86 0.1 0 0.88 0.1 0 
0.9 0.1 0 0.92 0.1 0 0.94 0.1 0 
0.96 0.1 0 0.98 0.1 0 1 0.1 0 
0 0.12 0 0.02 0.12 0 0.04 0.12 0 
0.06 0.12 0 0.08 0.12 0 0.1 0.12 0 
0.12 0.12 0 0.14 0.12 0 0.16 0.12 0 
0.18 0.12 0 0.2 0.12 0 0.22 0.12 0 
0.24 0.12 0 0.26 0.12 0 0.28 0.12 0 
0.3 0.12 0 0.32 0.12 0 0.34 0.12 0 
0.36 0.12 0 0.38 0.12 0 0.4 0.12 0 
0.42 0.12 0 0.44 0.12 0 0.46 0.12 0 
0.48 0.12 0 0.5 0.12 0 0.52 0.12 0 
0.54 0.12 0 0.56 0.12 0 0.58 0.12 0 
0.6 0.12 0 0.62 0.12 0 0.64 0.12 0 
0.66 0.12 0 0.68 0.12 0 0.7 0.12 0 
0.72 0.12 0 0.74 0.12 0 0.76 0.12 0 
0.78 0.12 0 0.8 0.12 0 0.82 0.12 0 
0.84 0.12 0 0.86 0.12 0 0.88 0.12 0 
0.9 0.12 0 0.92 0.12 0 0.94 0.12 0 
0.96 0.12 0 0.98 0.12 0 1 0.12 0 
0 0.14 0 0.02 0.14 0 0.04 0.14 0 
0.06 0.14 0 0.08 0.14 0 0.1 0.14 0 
0.12 0.14 0 0.14 0.14 0 0.16 0.14 0 
0.18 0.14 0 0.2 0.14 0 0.22 0.14 0 
0.24 0.14 0 0.26 0.14 0 0.28 0.14 0 
0.3 0.14 0 0.32 0.14 0 0.34 0.14 0 
0.36 0.14 0 0.38 0.14 0 0.4 0.14 0 
0.42 0.14 0 0.44 0.14 0 0.46 0.14 0 
0.48 0.14 0 0.5 0.14 0 0.52 0.14 0 
0.54 0.14 0 0.56 0.14 0 0.58 0.14 0 
0.6 0.14 0 0.62 0.14 0 0.64 0.14 0 
0.66 0.14 0 0.68 0.14 0 0.7 0.14 0 
0.72 0.14 0 0.74 0.14 0 0.76 0.14 0 
0.78 0.14 0 0.8 0.14 0 0.82 0.14 0 
0.84 0.14 0 0.86 0.14 0 0.88 0.14 0 
0.9 0.14 0 0.92 0.14 0 0.94 0.14 0 
0.96 0.14 0 0.98 0.14 0 1 0.14 0 
0 0.16 0 0.02 0.16 0 0.04 0.16 0 
0.06 0.16 0 0.08 0.16 0 0.1 0.16 0 
0.12 0.16 0 0.14 0.16 0 0.16 0.16 0 
0.18 0.16 0 0.2 0.16 0 0.22 0.16 0 
0.24 0.16 0 0.26 0.16 0 0.28 0.16 0 
0.3 0.16 0 0.32 0.16 0 0.34 0.16 0 
0.36 0.16 0 0.38 0.16 0 0.4 0.16 0 
0.42 0.16 0 0.44 0.16 0 0.46 0.16 0 
0.48 0.16 0 0.5 0.16 0 0.52 0.16 0 
0.54 0.16 0 0.56 0.16 0 0.58 0.16 0 
0.6 0.16 0 0.62 0.16 0 0.64 0.16 0 
0.66 0.16 0 0.68 0.16 0 0.7 0.16 0 
0.72 0.16 0 0.74 0.16 0 0.76 0.16 0 
0.78 0.16 0 0.8 0.16 0 0.82 0.16 0 
0.84 0.16 0 0.86 0.16 0 0.88 0.16 0 
0.9 0.16 0 0.92 0.16 0 0.94 0.16 0 
0.96 0.16 0 0.98 0.16 0 1 0.16 0 
0 0.18 0 0.02 0.18 0 0.04 0.18 0 
0.06 0.18 0 0.08 0.18 0 0.1 0.18 0 
0.12 0.18 0 0.14 0.18 0 0.16 0.18 0 
0.18 0.18 0 0.2 0.18 0 0.22 0.18 0 
0.24 0.18 0 0.26 0.18 0 0.28 0.18 0 
0.3 0.18 0 0.32 0.18 0 0.34 0.18 0 
0.36 0.18 0 0.38 0.18 0 0.4 0.18 0 
0.42 0.18 0 0.44 0.18 0 0.46 0.18 0 
0.48 0.18 0 0.5 0.18 0 0.52 0.18 0 
0.54 0.18 0 0.56 0.18 0 0.58 0.18 0 
0.6 0.18 0 0.62 0.18 0 0.64 0.18 0 
0.66 0.18 0 0.68 0.18 0 0.7 0.18 0 
0.72 0.18 0 0.74 0.18 0 0.76 0.18 0 
0.78 0.18 0 0.8 0.18 0 0.82 0.18 0 
0.84 0.18 0 0.86 0.18 0 0.88 0.18 0 
0.9 0.18 0 0.92 0.18 0 0.94 0.18 0 
0.96 0.18 0 0.98 0.18 0 1 0.18 0 
0 0.2 0 0.02 0.2 0 0.04 0.2 0 
0.06 0.2 0 0.08 0.2 0 0.1 0.2 0 
0.12 0.2 0 0.14 0.2 0 0.16 0.2 0 
0.18 0.2 0 0.2 0.2 0 0.22 0.2 0 
0.24 0.2 0 0.26 0.2 0 0.28 0.2 0 
0.3 0.2 0 0.32 0.2 0 0.34 0.2 0 
0.36 0.2 0 0.38 0.2 0 0.4 0.2 0 
0.42 0.2 0 0.44 0.2 0 0.46 0.2 0 
0.48 0.2 0 0.5 0.2 0 0.52 0.2 0 
0.54 0.2 0 0.56 0.2 0 0.58 0.2 0 
0.6 0.2 0 0.62 0.2 0 0.64 0.2 0 
0.66 0.2 0 0.68 0.2 0 0.7 0.2 0 
0.72 0.2 0 0.74 0.2 0 0.76 0.2 0 
0.78 0.2 0 0.8 0.2 0 0.82 0.2 0 
0.84 0.2 0 0.86 0.2 0 0.88 0.2 0 
0.9 0.2 0 0.92 0.2 0 0.94 0.2 0 
0.96 0.2 0 0.98 0.2 0 1 0.2 0 
0 0.22 0 0.02 0.22 0 0.04 0.22 0 
0.06 0.22 0 0.08 0.22 0 0.1 0.22 0 
0.12 0.22 0 0.14 0.22 0 0.16 0.22 0 
0.18 0.22 0 0.2 0.22 0 0.22 0.22 0 
0.24 0.22 0 0.26 0.22 0 0.28 0.22 0 
0.3 0.22 0 0.32 0.22 0 0.34 0.22 0 
0.36 0.22 0 0.38 0.22 0 0.4 0.22 0 
0.42 0.22 0 0.44 0.22 0 0.46 0.22 0 
0.48 0.22 0 0.5 0.22 0 0.52 0.22 0 
0.54 0.22 0 0.56 0.22 0 0.58 0.22 0 
0.6 0.22 0 0.62 0.22 0 0.64 0.22 0 
0.66 0.22 0 0.68 0.22 0 0.7 0.22 0 
0.72 0.22 0 0.74 0.22 0 0.76 0.22 0 
0.78 0.22 0 0.8 0.22 0 0.82 0.22 0 
0.84 0.22 0 0.86 0.22 0 0.88 0.22 0 
0.9 0.22 0 0.92 0.22 0 0.94 0.22 0 
0.96 0.22 0 0.98 0.22 0 1 0.22 0 
0 0.24 0 0.02 0.24 0 0.04 0.24 0 
0.06 0.24 0 0.08 0.24 0 0.1 0.24 0 
0.12 0.24 0 0.14 0.24 0 0.16 0.24 0 
0.18 0.24 0 0.2 0.24 0 0.22 0.24 0 
0.24 0.24 0 0.26 0.24 0 0.28 0.24 0 
0.3 0.24 0 0.32 0.24 0 0.34 0.24 0 
0.36 0.24 0 0.38 0.24 0 0.4 0.24 0 
0.42 0.24 0 0.44 0.24 0 0.46 0.24 0 
0.48 0.24 0 0.5 0.24 0 0.52 0.24 0 
0.54 0.24 0 0.56 0.24 0 0.58 0.24 0 
0.6 0.24 0 0.62 0.24 0 0.64 0.24 0 
0.66 0.24 0 0.68 0.24 0 0.7 0.24 0 
0.72 0.24 0 0.74 0.24 0 0.76 0.24 0 
0.78 0.24 0 0.8 0.24 0 0.82 0.24 0 
0.84 0.24 0 0.86 0.24 0 0.88 0.24 0 
0.9 0.24 0 0.92 0.24 0 0.94 0.24 0 
0.96 0.24 0 0.98 0.24 0 1 0.24 0 
0 0.26 0 0.02 0.26 0 0.04 0.26 0 
0.06 0.26 0 0.08 0.26 0 0.1 0.26 0 
0.12 0.26 0 0.14 0.26 0 0.16 0.26 0 
0.18 0.26 0 0.2 0.26 0 0.22 0.26 0 
0.24 0.26 0 0.26 0.26 0 0.28 0.26 0 
0.3 0.26 0 0.32 0.26 0 0.34 0.26 0 
0.36 0.26 0 0.38 0.26 0 0.4 0.26 0 
0.42 0.26 0 0.44 0.26 0 0.46 0.26 0 
0.48 0.26 0 0.5 0.26 0 0.52 0.26 0 
0.54 0.26 0 0.56 0.26 0 0.58 0.26 0 
0.6 0.26 0 0.62 0.26 0 0.64 0.26 0 
0.66 0.26 0 0.68 0.26 0 0.7 0.26 0 
0.72 0.26 0 0.74 0.26 0 0.76 0.26 0 
0.78 0.26 0 0.8 0.26 0 0.82 0.26 0 
0.84 0.26 0 0.86 0.26 0 0.88 0.26 0 
0.9 0.26 0 0.92 0.26 0 0.94 0.26 0 
0.96 0.26 0 0.98 0.26 0 1 0.26 0 
0 0.28 0 0.02 0.28 0 0.04 0.28 0 
0.06 0.28 0 0.08 0.28 0 0.1 0.28 0 
0.12 0.28 0 0.14 0.28 0 0.16 0.28 0 
0.18 0.28 0 0.2 0.28 0 0.22 0.28 0 
0.24 0.28 0 0.26 0.28 0 0.28 0.28 0 
0.3 0.28 0 0.32 0.28 0 0.34 0.28 0 
0.36 0.28 0 0.38 0.28 0 0.4 0.28 0 
0.42 0.28 0 0.44 0.28 0 0.46 0.28 0 
0.48 0.28 0 0.5 0.28 0 0.52 0.28 0 
0.54 0.28 0 0.56 0.28 0 0.58 0.28 0 
0.6 0.28 0 0.62 0.28 0 0.64 0.28 0 
0.66 0.28 0 0.68 0.28 0 0.7 0.28 0 
0.72 0.28 0 0.74 0.28 0 0.76 0.28 0 
0.78 0.28 0 0.8 0.28 0 0.82 0.28 0 
0.84 0.28 0 0.86 0.28 0 0.88 0.28 0 
0.9 0.28 0 0.92 0.28 0 0.94 0.28 0 
0.96 0.28 0 0.98 0.28 0 1 0.28 0 
0 0.3 0 0.02 0.3 0 0.04 0.3 0 
0.06 0.3 0 0.08 0.3 0 0.1 0.3 0 
0.12 0.3 0 0.14 0.3 0 0.16 0.3 0 
0.18 0.3 0 0.2 0.3 0 0.22 0.3 0 
0.24 0.3 0 0.26 0.3 0 0.28 0.3 0 
0.3 0.3 0 0.32 0.3 0 0.34 0.3 0 
0.36 0.3 0 0.38 0.3 0 0.4 0.3 0 
0.42 0.3 0 0.44 0.3 0 0.46 0.3 0 
0.48 0.3 0 0.5 0.3 0 0.52 0.3 0 
0.54 0.3 0 0.56 0.3 0 0.58 0.3 0 
0.6 0.3 0 0.62 0.3 0 0.64 0.3 0 
0.66 0.3 0 0.68 0.3 0 0.7 0.3 0 
0.72 0.3 0 0.74 0.3 0 0.76 0.3 0 
0.78 0.3 0 0.8 0.3 0 0.82 0.3 0 
0.84 0.3 0 0.86 0.3 0 0.88 0.3 0 
0.9 0.3 0 0.92 0.3 0 0.94 0.3 0 
0.96 0.3 0 0.98 0.3 0 1 0.3 0 
0 0.32 0 0.02 0.32 0 0.04 0.32 0 
0.06 0.32 0 0.08 0.32 0 0.1 0.32 0 
0.12 0.32 0 0.14 0.32 0 0.16 0.32 0 
0.18 0.32 0 0.2 0.32 0 0.22 0.32 0 
0.24 0.32 0 0.26 0.32 0 0.28 0.32 0 
0.3 0.32 0 0.32 0.32 0 0.34 0.32 0 
0.36 0.32 0 0.38 0.32 0 0.4 0.32 0 
0.42 0.32 0 0.44 0.32 0 0.46 0.32 0 
0.48 0.32 0 0.5 0.32 0 0.52 0.32 0 
0.54 0.32 0 0.56 0.32 0 0.58 0.32 0 
[...]
CELL_DATA 2500
FIELD FieldData 1
pressure 1 2500 double
0.0061818118455 0.0061175806214 0.0059293828196 0.0056549087155 0.0053348173661 0.005003236731 0.0046862245351 0.004402504836 0.0041648244463 
0.0039813691244 0.0038570505145 0.0037945904521 0.0037953762245 0.0038600774589 0.0039890244708 0.0041823630052 0.0044400225121 0.004761554915 
0.0051459072072 0.0055911821824 0.0060944227202 0.0066514344468 0.0072566466704 0.0079030052334 0.0085818896602 0.0092830464523 0.0099941718156 
0.01070206518 0.011392811852 0.012051894532 0.012664617227 0.013216631739 0.013694531437 0.0140864782 0.014382826757 0.014576709156 
0.01466454266 0.014646428198 0.01452641428 0.014312612704 0.01401716656 0.013656086586 0.013248985373 0.012818744929 0.012391150022 
0.01199438868 0.011658288951 0.011412392495 0.01128078744 0.011268380061 0.006251870266 0.006186052 0.0060227127008 0.0057926738776 
0.0055264612235 0.0052505338927 0.004985797232 0.0047477328526 0.0045472818338 0.0043919166769 0.0042866289822 0.0042347312956 0.0042384493601 
0.0042993106235 0.0044183509016 0.0045961753705 0.0048329194811 0.0051281534034 0.005480761438 0.005888813463 0.0063494347122 0.006858676023 
0.0074113891352 0.0080011172343 0.0086200173078 0.0092588409827 0.009906031121 0.010549627909 0.011177070716 0.01177527917 0.012331069563 
0.012831641078 0.013265113036 0.013621086441 0.013891198714 0.014069638162 0.014153584885 0.014143548365 0.014043578868 0.013861339327 
0.013608035936 0.013298217014 0.012949457365 0.012581944558 0.012217964611 0.011881232612 0.011595873233 0.011384847949 0.011267322726 
0.011255962901 0.0064470518458 0.0063471749875 0.0061790958263 0.0059663273639 0.0057307391856 0.0054911605832 0.0052627862991 0.0050573789069 
0.0048838312568 0.00474878171 0.0046571522299 0.0046125761233 0.0046177140523 0.0046744672832 0.0047841058963 0.0049473349719 0.0051643179392 
0.0054346645701 0.0057573818501 0.0061307853938 0.0065523755592 0.0070186917637 0.007525166564 0.0080660043565 0.0086341101581 0.0092210940211 
0.0098158778521 0.010407498927 0.010984416229 0.01153460041 0.012045934243 0.012506671468 0.012905939506 0.013234262739 0.013484077337 
0.013650205261 0.013730254807 0.013724918301 0.013638143749 0.013477166127 0.013252394673 0.012977162656 0.012667353358 0.012340917037 
0.012017284192 0.011716660078 0.011459158349 0.011263809246 0.01114766652 0.0111261661 0.0067296307272 0.0065749129012 0.0063825487975 
0.0061672649173 0.0059428631745 0.0057216060017 0.0055139553193 0.0053286011565 0.0051725952886 0.0050515231134 0.0049697015074 0.0049303893511 
0.0049359874382 0.0049882092178 0.00508821532 0.0052367098136 0.0054339918059 0.0056799511724 0.0059740019818 0.0063149595356 0.0067008796227 
0.0071288864002 0.0075950165955 0.0080941035515 0.0086197194621 0.0091641893926 0.0097167986871 0.01026735426 0.010805051926 0.011318582175 
0.011796512603 0.012227730236 0.012601928357 0.012910114372 0.013145109212 0.01330200496 0.013378546914 0.013375409264 0.01329633943 
0.013148155235 0.012940590163 0.012685993002 0.012398897872 0.0120954864 0.011792964728 0.01150887788 0.011260394406 0.011063651875 
0.010933374411 0.010883209292 0.0070627186559 0.0068429526226 0.0066126757 0.0063790521783 0.0061496687968 0.0059319574586 0.0057327763896 
0.0055581215393 0.0054129668908 0.0053012536575 0.0052260056781 0.0051895111427 0.0051935107521 0.0052393562874 0.0053281245533 0.0054606788004 
0.0056376688809 0.0058594650032 0.0061260317031 0.0064367607506 0.0067902877838 0.0071843169407 0.0076154729141 0.0080791941763 0.0085696770988 
0.0090798787854 0.0095994141669 0.010118640926 0.010627253955 0.011114375113 0.011568924496 0.011980058048 0.012337653913 0.012632822593 
0.012858409783 0.013009456652 0.013083581621 0.013081250093 0.013005904566 0.012863937389 0.012664500566 0.01241916031 0.012141416988 
0.011846121233 0.01154882431 0.011265106737 0.011009937569 0.010797133521 0.010639004793 0.010546207988 0.007414093444 0.0071239007722 
0.0068460252057 0.0065826065539 0.006336987193 0.006112954003 0.0059141557661 0.0057437209399 0.0056041155718 0.005497205926 0.005424432221 
0.0053869982622 0.0053860198015 0.0054226136576 0.0054979282386 0.0056131177211 0.0057692606618 0.0059672290218 0.0062075220867 0.0064900837664 
0.0068141198665 0.0071779281144 0.0075787504539 0.0080126561333 0.0084744646185 0.008957718681 0.0094523646076 0.0099490828359 0.010437861184 
0.010908002534 0.011348493243 0.011748445114 0.01209759197 0.012386814669 0.012608661706 0.012757827869 0.012831552015 0.012829896709 
0.012755878737 0.012615430194 0.012417183452 0.012172089388 0.011892894253 0.011593514324 0.011288357781 0.010991648537 0.010716805501 
0.010475919321 0.010279330393 0.010135191253 0.0077548301836 0.0073915161774 0.0070605637421 0.0067609945076 0.0064928662698 0.0062566088928 
0.0060525780741 0.0058808737281 0.0057413940122 0.005634013809 0.0055587706719 0.0055159897093 0.0055063329352 0.0055307863442 0.0055905997594 
0.0056871871633 0.0058219921684 0.0059963266572 0.0062111932993 0.0064671006646 0.0067638764911 0.0071004845965 0.0074748531792 0.0078837256894 
0.0083225480863 0.0087854070232 0.009262604385 0.0097449076627 0.010222426725 0.010684438621 0.011119756957 0.01151718261 0.011866016963 
0.012156610894 0.012380915034 0.012532991139 0.01260944179 0.012609716685 0.012536260275 0.012394476867 0.012192504732 0.011940809493 
0.011651626064 0.011338295214 0.011014552836 0.010693833441 0.010388641077 0.01011001593 0.0098670733221 0.0096665009089 0.008059442828 
0.007623182104 0.0072377722521 0.0068996892523 0.0066058189724 0.0063532325234 0.0061390900214 0.0059607313833 0.0058158684423 0.0057027671419 
0.0056203534512 0.0055682347129 0.0055466594159 0.0055564385177 0.0055988389969 0.0056754518816 0.0057880366868 0.0059383468928 0.0061279405918 
0.0063579776974 0.00662900575 0.0069407411183 0.0072918576391 0.0076797985054 0.0081006284173 0.0085489413303 0.0090154619537 0.0094908182344 
0.0099651166371 0.010427448577 0.010866259707 0.011269810429 0.011626709888 0.011926496433 0.012160228394 0.012321042087 0.012404629833 
0.012409591146 0.012337616618 0.012193475818 0.011984797728 0.011721653408 0.01141597258 0.011080845704 0.010729776707 0.010375954363 
0.010031598891 0.0097074110705 0.0094121013239 0.0091519083325 0.0083065846888 0.0078000523397 0.0073613152025 0.0069841913991 0.0066624444137 
0.0063900574242 0.0061614524804 0.0059717270366 0.0058168460892 0.0056937467399 0.0056003583108 0.0055355664404 0.0054991453402 0.0054916658667 
0.0055143767275 0.0055690561997 0.0056578362676 0.0057830032645 0.00594677718 0.0061510706749 0.0063972328946 0.0066857891183 0.007016191454 
0.0073865974097 0.0077936923458 0.0082325693851 0.0086945135043 0.0091698089068 0.0096484809228 0.010119318612 0.010570240631 0.01098876509 
0.011362567109 0.011680096959 0.011931221279 0.012107841322 0.012204436431 0.012218480307 0.012150683189 0.012005024931 0.011788562557 
0.011511019294 0.011184187197 0.010821198688 0.010435738291 0.010041269728 0.0096503417476 0.0092740063193 0.0089213363971 0.0085989746507 
0.0084783733853 0.0079053022896 0.007415071691 0.0069988739875 0.0066476923139 0.0063529069508 0.0061066866129 0.0059022502426 0.0057340122335 
0.0055976379643 0.0054900457469 0.0054093782003 0.0053549451949 0.0053271294878 0.0053272490762 0.005357378617 0.0054201373682 0.0055184503557 
0.0056552860853 0.0058333742941 0.0060549118402 0.0063212689155 0.0066327097426 0.006988142309 0.0073849108136 0.0078186435294 0.0082814035613 
0.008762953365 0.0092532021663 0.0097405575847 0.010212283623 0.010654977802 0.011055152938 0.011399897089 0.01167757356 0.011878512552 
0.011995638261 0.012024972865 0.011965962693 0.011821583274 0.011598199251 0.011305180592 0.010954304905 0.01055900274 0.010133522201 
0.0096920958468 0.009248182636 0.0088138289526 0.0083991489558 0.0080118743222 0.0085586862012 0.0079227015715 0.007382861839 0.0069280522984 
0.0065468667315 0.0062284169781 0.0059628284133 0.0057415247116 0.0055573791227 0.0054047904119 0.0052797142669 0.0051796528185 0.00510359132 
0.0050518749922 0.0050260306919 0.0050285455767 0.0050626148676 0.0051318659512 0.0052400619699 0.00539078908 0.0055871350922 0.0058313693763 
0.0061246353199 0.0064666679151 0.0068555501406 0.0072875228753 0.0077557204747 0.0082492359281 0.0087578679784 0.0092696025517 0.0097709553535 
0.010247450938 0.010684225923 0.011066731788 0.011381500039 0.011616919888 0.011763968397 0.011816827707 0.011773325329 0.011635143323 
0.011407761428 0.011100126146 0.010724069661 0.010293533991 0.0098236802953 0.009329974503 0.0088273336335 0.0083293907398 0.0078478945404 
0.0073922119041 0.0085320332636 0.00783662428 0.0072494792316 0.0067574289794 0.0063468156199 0.0060045271839 0.0057186309865 0.0054787416181 
0.0052762322154 0.0051043512755 0.0049582661765 0.0048350325805 0.0047334883093 0.0046540806245 0.004598643658 0.0045701421311 0.0045723915636 
0.004609758727 0.0046868433841 0.0048081442896 0.0049777149082 0.005198816008 0.0054735747584 0.005802663156 0.0061850123997 0.0066175844144 
0.0070949573449 0.0076054428054 0.0081387835246 0.0086825516951 0.0092224633132 0.0097428499988 0.010227276802 0.010659285397 0.011023228305 
0.011305144448 0.01149361272 0.011580511027 0.011561605738 0.011436903599 0.01121071602 0.010891413437 0.010490882701 0.010023737402 
0.0095063623406 0.0089558916744 0.0083892192544 0.0078221173303 0.0072685001718 0.0067398221613 0.0083836456803 0.0076327453482 0.0070013782327 
0.0064742951047 0.0060355024462 0.0056695970522 0.0053625813638 0.0051023406609 0.0048789076678 0.0046845840217 0.0045139496915 0.0043637776523 
0.0042328725907 0.0041218555864 0.0040329136866 0.0039695256124 0.0039361675893 0.0039379989587 0.0039805270717 0.0040692532928 0.0042093036753 
0.0044050499838 0.0046597304318 0.0049750839249 0.0053510165176 0.005785323197 0.0062745613961 0.0068061309391 0.0073698581951 0.0079529711275 
0.0085403861531 0.0091151626916 0.0096591245458 0.010153636711 0.010580509171 0.010922980228 0.011166714006 0.011300732358 0.01131819368 
0.011216933622 0.010999697438 0.010674021163 0.010251757089 0.0097482822529 0.0091814690901 0.0085705257883 0.0079348221416 0.0072928012399 
0.006661041219 0.006053484685 0.0081000419269 0.0072982971011 0.0066263785284 0.0060668052049 0.0056011807038 0.0052118376732 0.004882827414 
0.0046004785241 0.0043536735631 0.0041339354736 0.0039353801815 0.0037545760345 0.0035903425225 0.0034435116279 0.0033166642409 0.0032138455471 
0.003140258983 0.0031019371464 0.0031053892431 0.0031572261411 0.0032637651295 0.0034306190122 0.0036622783286 0.0039617001962 0.0043299223556 
0.0047657250222 0.0052681272359 0.0058237272718 0.006422629033 0.0070518416437 0.0076955396034 0.0083354821852 0.0089516198445 0.0095228914795 
0.010028193036 0.010447474748 0.01076290148 0.010959990009 0.011028622318 0.01096382953 0.010766250283 0.010442192567 0.01000326836 
0.0094656207654 0.0088488154244 0.0081745105484 0.0074650421602 0.0067420567113 0.0060252929398 0.0053315684059 0.0076692114236 0.0068217363395 
0.0061131007489 0.0055235567647 0.0050323838243 0.0046197900422 0.0042680387741 0.0039620544819 0.0036896879058 0.0034417609736 0.0032119727971 
0.0029967224977 0.0027948843864 0.002607553929 0.0024377708829 0.0022902205823 0.0021709128492 0.0020868377397 0.0020455976169 0.0020550149403 
0.002122715738 0.0022556914949 0.0024598461977 0.0027395396611 0.003097143839 0.0035326417412 0.0040477140552 0.0046288087845 0.0052664876075 
0.0059477116422 0.0066560397838 0.0073719718619 0.0080735093677 0.0087369514835 0.0093379164002 0.0098525524967 0.010258876596 0.010538148718 
0.010676169001 0.010664368059 0.010500562487 0.010189267141 0.0097414962834 0.0091740434627 0.0085082963274 0.0077687044404 0.0069810608127 
0.0061707704418 0.0053612583573 0.0045726235749 0.0070803812588 0.006192445256 0.0054509309398 0.0048339530322 0.0043186247808 0.0038831746398 
0.003508191174 0.0031772714264 0.0028772820008 0.0025983781593 0.0023338797554 0.0020800672589 0.0018359334838 0.0016029074551 0.001384556739 
0.001186270967 0.0010149273537 0.00087853709245 0.00078586989891 0.00074605282626 0.0007681402727 0.00086065512088 0.001031104571 0.0012854771165 
0.001627726635 0.0020592400879 0.002584321087 0.0031906259488 0.0038691743178 0.0046071168752 0.0053876239956 0.0061900732005 0.006990523929 
0.0077624831522 0.0084779587399 0.0091087760387 0.0096281022709 0.010012087642 0.010241496995 0.010303178108 0.010191200143 0.0099075058965 
0.0094619588489 0.0088717301518 0.0081600538101 0.0073544653796 0.006484711033 0.0055805519005 0.0046696831912 0.0037759428581 0.0063238729346 
0.0054008838668 0.0046304812297 0.0039888159506 0.0034509643156 0.0029932658002 0.0025946954922 0.0022375691726 0.0019078143141 0.0015949730495 
0.0012920500195 0.00099527581766 0.00070382578429 0.0004195143938 0.00014647543819 -0.00010916726117 -0.00033963872859 -0.00053586545719 -0.00068784860713 
-0.000785065582 -0.00081690624282 -0.00077314660665 -0.0006444588636 -0.00042295287257 -0.0001027452292 0.00031942356697 0.00084851389148 0.0014779632308 
0.0021976095457 0.002995326838 0.0038542919065 0.0047530262231 0.005665765301 0.0065631627893 0.0074133457158 0.0081833162534 0.008840659664 
0.0093554731681 0.0097023818274 0.0098624625954 0.0098248666922 0.0095879246372 0.0091595470107 0.0085568015527 0.0078046484755 0.006933934673 
0.0059788586172 0.0049741932762 0.003952573625 0.0029421148486 0.0053913224003 0.0044389994711 0.003643999149 0.0029806371316 0.002422045912 
0.0019427555 0.0015202036415 0.0011355030734 0.00077372255385 0.00042386901683 7.8699440743e-05 -0.00026555599382 -0.00060951162783 -0.00095095867654 
-0.0012851990128 -0.0016053765354 -0.0019028098114 -0.00216733455 -0.0023876668954 -0.0025517987539 -0.0026474343157 -0.0026624733685 -0.002585541928 
-0.0024065623558 -0.0021173371466 -0.001712065031 -0.0011874907369 -0.00053939034655 0.00021913470657 0.0010774683685 0.0020193267386 0.0030227734099 
0.0040604711068 0.0051002829886 0.0061062849929 0.0070402162402 0.007863351818 0.0085387275808 0.0090335826079 0.009321819 0.0093862229616 
0.0092201611343 0.0088284778526 0.0082273838485 0.007443245409 0.0065103398055 0.0054678065471 0.0043561535944 0.0032137359615 0.0020735943764 
0.0042760614842 0.0033004969029 0.0024854318918 0.0018034657183 0.0012259150359 0.00072563350193 0.00027865120312 -0.00013500616069 -0.00053103506928 
-0.00092089895242 -0.0013120546816 -0.0017082673499 -0.0021099573872 -0.002514549383 -0.0029168091319 -0.0033091679822 -0.0036820421115 -0.0040241588847 
-0.0043229043674 -0.0045647060358 -0.0047354630262 -0.0048210334186 -0.004807783732 -0.0046831993659 -0.0044365450842 -0.0040595512811 -0.0035471014072 
-0.0028889547269 -0.0020969498802 -0.0011799781192 -0.00015326582696 0.00096130548577 0.0021352296062 0.0033338020373 0.0045170234816 0.0056410411381 
0.0066601457181 0.0075292800534 0.0082069357324 0.0086582240452 0.0088578202154 0.0087924155326 0.0084622946423 0.0078817067923 0.0070778305512 
0.0060883307656 0.0049577378261 0.0037330851188 0.0024593597507 0.0011753151085 0.0029733531208 0.0019808624484 0.0011503273733 0.00045282090475 
-0.00014194779188 -0.00066260703357 -0.001134373894 -0.0015781940441 -0.00201046041 -0.0024430804663 -0.0028837326408 -0.0033362084236 -0.0038007779823 
-0.0042745461019 -0.0047517856735 -0.0052242501805 -0.0056814752026 -0.0061110832923 -0.0064991087085 -0.0068303590432 -0.0070888300169 -0.007258187873 
-0.0073223307963 -0.0072660374755 -0.0070757106736 -0.0067402394979 -0.0062520870202 -0.0055946243374 -0.0047777031297 -0.0038073236923 -0.0026968818431 
-0.0014675141669 -0.0001483029309 0.0012239044358 0.0026052078173 0.0039460060297 0.0051930505427 0.0062921977788 0.0071917632155 0.0078462644036 
0.0082202145702 0.0082915177932 0.0080539542164 0.0075182653101 0.0067114806957 0.0056743698736 0.0044572164819 0.0031144232546 0.001698668164 
0.0002553711699 0.0014804266935 0.00047732613795 -0.00036414965197 -0.0010741686912 -0.0016843616677 -0.0022246227114 -0.0027212643933 -0.0031961151873 
-0.0036662290524 -0.0041439622931 -0.0046372472799 -0.0051499513373 -0.0056822530674 -0.0062310002721 -0.0067900363173 -0.0073504970035 -0.00790108895 
-0.0084283655669 -0.0089170197824 -0.0093502141873 -0.0097099693428 -0.0099776297622 -0.010134424546 -0.01016213644 -0.010043889939 -0.0097650655571 
-0.0093143272123 -0.0086735945636 -0.0078442075773 -0.0068293762862 -0.0056399985946 -0.0042956404943 -0.0028251609033 -0.0012668859746 0.00033180998975 
0.0019156618302 0.0034235254485 0.0047912978848 0.0059556966437 0.0068587080489 0.0074523456834 0.0077031902872 0.0075960546642 0.0071360845327 
0.0063487177031 0.0052772004565 0.0039777702807 0.0025130639979 0.00094466135853 -0.00067420425992 -0.00020353094738 -0.0012110818485 -0.0020590679083 
-0.0027785565447 -0.0034022337168 -0.0039610505262 -0.0044822823748 -0.0049885728384 -0.0054976196513 -0.0060222479805 -0.0065706911913 -0.0071469590738 
-0.0077512195618 -0.0083801543594 -0.0090272735925 -0.0096831910913 -0.010335872035 -0.010970871123 -0.011571583616 -0.012119533805 -0.012594726056 
-0.012976082629 -0.013241990165 -0.013370973011 -0.013342505973 -0.013137971424 -0.012741766222 -0.012135718138 -0.011309405664 -0.010262897837 
-0.0090034906407 -0.0075481038806 -0.0059243316455 -0.0041710425016 -0.0023383573049 -0.0004868102383 0.0013144901863 0.0029908303487 0.0044660162411 
0.0056675165642 0.0065322729998 0.0070125860304 0.0070812683077 0.0067351383484 0.0059959852412 0.0049084251721 0.0035345824537 0.0019461555482 
0.00021498029111 -0.001596534405 -0.0020773249584 -0.0030834330752 -0.0039336354679 -0.0046595363797 -0.0052945861939 -0.0058705848747 -0.0064156416258 
-0.0069531538458 -0.0075014571381 -0.008073883939 -0.0086790417883 -0.0093211825551 -0.010000582024 -0.01071388602 -0.011454405977 -0.012212364926 
-0.012975106589 -0.013727287986 -0.014451080953 -0.01512641058 -0.01573125953 -0.016242066716 -0.016634247051 -0.016882855308 -0.016963408701 
-0.016852859789 -0.016530633505 -0.015979328635 -0.015175116929 -0.014113742767 -0.012797674591 -0.011239941149 -0.009465612344 -0.0075128859074 
-0.0054335680614 -0.003292694295 -0.0011670273694 0.00085779449065 0.0026915886924 0.0042453934809 0.0054383658078 0.006205191075 0.006503054918 
0.0063169809663 0.0056622938642 0.0045832301262 0.0031473232865 0.0014360329959 -0.000467080174 -0.0024888387999 -0.0041377042778 -0.0051369087028 
-0.0059852934002 -0.0067146080617 -0.0073587497648 -0.0079501417766 -0.0085175941595 -0.0090852091048 -0.0096719821287 -0.010291831468 -0.010953859074 
-0.011662707116 -0.012418923539 -0.013219288775 -0.014057084103 -0.014922301754 -0.015801810005 -0.016679495347 -0.017536409279 -0.018350950354 
-0.019099113579 -0.019754839666 -0.02029049621 -0.02067752169 -0.020887261278 -0.020892024117 -0.020666414352 -0.020189133057 -0.019429518877 
-0.018374115674 -0.017019337569 -0.015373002462 -0.013456233862 -0.011305090958 -0.0089716606046 -0.0065242932698 -0.0040466323644 -0.0016350959466 
0.0006054535013 0.0025679435384 0.0041510351124 0.0052681801348 0.0058567357262 0.0058856582428 0.0053600868276 0.004321295827 0.002841155669 
0.0010113269919 -0.0010713789631 -0.0033211878722 -0.0063794333545 -0.0073669754179 -0.0082099605824 -0.0089398329321 -0.0095905745156 -0.010194989599 
-0.010782469046 -0.011377809341 -0.012000743669 -0.01266591764 -0.013383109732 -0.014157555679 -0.014990285459 -0.015878420645 -0.016815409281 
-0.017791196387 -0.018792342807 -0.019802114893 -0.020800573727 -0.021764696252 -0.022668562948 -0.023483648026 -0.024179249029 -0.024723093247 
-0.025082159113 -0.025223755689 -0.025116930598 -0.024734402547 -0.024045166711 -0.023020223449 -0.021649029007 -0.019932900102 -0.017887500642 
-0.015545075155 -0.012956259193 -0.010191092649 -0.0073387970924 -0.0045058524234 -0.0018119467381 0.00061647906422 0.0026550720086 0.0041923041233 