# vtk DataFile Version 4.1
vtk output
ASCII
DATASET STRUCTURED_GRID
DIMENSIONS 51 51 1
POINTS 2601 float
0 0 0 0.02 0 0 0.04 0 0 
0.06 0 0 0.08 0 0 0.1 0 0 
0.12 0 0 0.14 0 0 0.16 0 0 
0.18 0 0 0.2 0 0 0.22 0 0 
0.24 0 0 0.26 0 0 0.28 0 0 
0.3 0 0 0.32 0 0 0.34 0 0 
0.36 0 0 0.38 0 0 0.4 0 0 
0.42 0 0 0.44 0 0 0.46 0 0 
0.48 0 0 0.5 0 0 0.52 0 0 
0.54 0 0 0.56 0 0 0.58 0 0 
0.6 0 0 0.62 0 0 0.64 0 0 
0.66 0 0 0.68 0 0 0.7 0 0 
0.72 0 0 0.74 0 0 0.76 0 0 
0.78 0 0 0.8 0 0 0.82 0 0 
0.84 0 0 0.86 0 0 0.88 0 0 
0.9 0 0 0.92 0 0 0.94 0 0 
0.96 0 0 0.98 0 0 1 0 0 
0 0.02 0 0.02 0.02 0 0.04 0.02 0 
0.06 0.02 0 0.08 0.02 0 0.1 0.02 0 
0.12 0.02 0 0.14 0.02 0 0.16 0.02 0 
0.18 0.02 0 0.2 0.02 0 0.22 0.02 0 
0.24 0.02 0 0.26 0.02 0 0.28 0.02 0 
0.3 0.02 0 0.32 0.02 0 0.34 0.02 0 
0.36 0.02 0 0.38 0.02 0 0.4 0.02 0 
0.42 0.02 0 0.44 0.02 0 0.46 0.02 0 
0.48 0.02 0 0.5 0.02 0 0.52 0.02 0 
0.54 0.02 0 0.56 0.02 0 0.58 0.02 0 
0.6 0.02 0 0.62 0.02 0 0.64 0.02 0 
0.66 0.02 0 0.68 0.02 0 0.7 0.02 0 
0.72 0.02 0 0.74 0.02 0 0.76 0.02 0 
0.78 0.02 0 0.8 0.02 0 0.82 0.02 0 
0.84 0.02 0 0.86 0.02 0 0.88 0.02 0 
0.9 0.02 0 0.92 0.02 0 0.94 0.02 0 
0.96 0.02 0 0.98 0.02 0 1 0.02 0 
0 0.04 0 0.02 0.04 0 0.04 0.04 0 
0.06 0.04 0 0.08 0.04 0 0.1 0.04 0 
0.12 0.04 0 0.14 0.04 0 0.16 0.04 0 
0.18 0.04 0 0.2 0.04 0 0.22 0.04 0 
0.24 0.04 0 0.26 0.04 0 0.28 0.04 0 
0.3 0.04 0 0.32 0.04 0 0.34 0.04 0 
0.36 0.04 0 0.38 0.04 0 0.4 0.04 0 
0.42 0.04 0 0.44 0.04 0 0.46 0.04 0 
0.48 0.04 0 0.5 0.04 0 0.52 0.04 0 
0.54 0.04 0 0.56 0.04 0 0.58 0.04 0 
0.6 0.04 0 0.62 0.04 0 0.64 0.04 0 
0.66 0.04 0 0.68 0.04 0 0.7 0.04 0 
0.72 0.04 0 0.74 0.04 0 0.76 0.04 0 
0.78 0.04 0 0.8 0.04 0 0.82 0.04 0 
0.84 0.04 0 0.86 0.04 0 0.88 0.04 0 
0.9 0.04 0 0.92 0.04 0 0.94 0.04 0 
0.96 0.04 0 0.98 0.04 0 1 0.04 0 
0 0.06 0 0.02 0.06 0 0.04 0.06 0 
0.06 0.06 0 0.08 0.06 0 0.1 0.06 0 
0.12 0.06 0 0.14 0.06 0 0.16 0.06 0 
0.18 0.06 0 0.2 0.06 0 0.22 0.06 0 
0.24 0.06 0 0.26 0.06 0 0.28 0.06 0 
0.3 0.06 0 0.32 0.06 0 0.34 0.06 0 
0.36 0.06 0 0.38 0.06 0 0.4 0.06 0 
0.42 0.06 0 0.44 0.06 0 0.46 0.06 0 
0.48 0.06 0 0.5 0.06 0 0.52 0.06 0 
0.54 0.06 0 0.56 0.06 0 0.58 0.06 0 
0.6 0.06 0 0.62 0.06 0 0.64 0.06 0 
0.66 0.06 0 0.68 0.06 0 0.7 0.06 0 
0.72 0.06 0 0.74 0.06 0 0.76 0.06 0 
0.78 0.06 0 0.8 0.06 0 0.82 0.06 0 
0.84 0.06 0 0.86 0.06 0 0.88 0.06 0 
0.9 0.06 0 0.92 0.06 0 0.94 0.06 0 
0.96 0.06 0 0.98 0.06 0 1 0.06 0 
0 0.08 0 0.02 0.08 0 0.04 0.08 0 
0.06 0.08 0 0.08 0.08 0 0.1 0.08 0 
0.12 0.08 0 0.14 0.08 0 0.16 0.08 0 
0.18 0.08 0 0.2 0.08 0 0.22 0.08 0 
0.24 0.08 0 0.26 0.08 0 0.28 0.08 0 
0.3 0.08 0 0.32 0.08 0 0.34 0.08 0 
0.36 0.08 0 0.38 0.08 0 0.4 0.08 0 
0.42 0.08 0 0.44 0.08 0 0.46 0.08 0 
0.48 0.08 0 0.5 0.08 0 0.52 0.08 0 
0.54 0.08 0 0.56 0.08 0 0.58 0.08 0 
0.6 0.08 0 0.62 0.08 0 0.64 0.08 0 
0.66 0.08 0 0.68 0.08 0 0.7 0.08 0 
0.72 0.08 0 0.74 0.08 0 0.76 0.08 0 
0.78 0.08 0 0.8 0.08 0 0.82 0.08 0 
0.84 0.08 0 0.86 0.08 0 0.88 0.08 0 
0.9 0.08 0 0.92 0.08 0 0.94 0.08 0 
0.96 0.08 0 0.98 0.08 0 1 0.08 0 
0 0.1 0 0.02 0.1 0 0.04 0.1 0 
0.06 0.1 0 0.08 0.1 0 0.1 0.1 0 
0.12 0.1 0 0.14 0.1 0 0.16 0.1 0 
0.18 0.1 0 0.2 0.1 0 0.22 0.1 0 
0.24 0.1 0 0.26 0.1 0 0.28 0.1 0 
0.3 0.1 0 0.32 0.1 0 0.34 0.1 0 
0.36 0.1 0 0.38 0.1 0 0.4 0.1 0 
0.42 0.1 0 0.44 0.1 0 0.46 0.1 0 
0.48 0.1 0 0.5 0.1 0 0.52 0.1 0 
0.54 0.1 0 0.56 0.1 0 0.58 0.1 0 
0.6 0.1 0 0.62 0.1 0 0.64 0.1 0 
0.66 0.1 0 0.68 0.1 0 0.7 0.1 0 
0.72 0.1 0 0.74 0.1 0 0.76 0.1 0 
0.78 0.1 0 0.8 0.1 0 0.82 0.1 0 
0.84 0.1 0 0.86 0.1 0 0.88 0.1 0 
0.9 0.1 0 0.92 0.1 0 0.94 0.1 0 
0.96 0.1 0 0.98 0.1 0 1 0.1 0 
0 0.12 0 0.02 0.12 0 0.04 0.12 0 
0.06 0.12 0 0.08 0.12 0 0.1 0.12 0 
0.12 0.12 0 0.14 0.12 0 0.16 0.12 0 
0.18 0.12 0 0.2 0.12 0 0.22 0.12 0 
0.24 0.12 0 0.26 0.12 0 0.28 0.12 0 
0.3 0.12 0 0.32 0.12 0 0.34 0.12 0 
0.36 0.12 0 0.38 0.12 0 0.4 0.12 0 
0.42 0.12 0 0.44 0.12 0 0.46 0.12 0 
0.48 0.12 0 0.5 0.12 0 0.52 0.12 0 
0.54 0.12 0 0.56 0.12 0 0.58 0.12 0 
0.6 0.12 0 0.62 0.12 0 0.64 0.12 0 
0.66 0.12 0 0.68 0.12 0 0.7 0.12 0 
0.72 0.12 0 0.74 0.12 0 0.76 0.12 0 
0.78 0.12 0 0.8 0.12 0 0.82 0.12 0 
0.84 0.12 0 0.86 0.12 0 0.88 0.12 0 
0.9 0.12 0 0.92 0.12 0 0.94 0.12 0 
0.96 0.12 0 0.98 0.12 0 1 0.12 0 
0 0.14 0 0.02 0.14 0 0.04 0.14 0 
0.06 0.14 0 0.08 0.14 0 0.1 0.14 0 
0.12 0.14 0 0.14 0.14 0 0.16 0.14 0 
0.18 0.14 0 0.2 0.14 0 0.22 0.14 0 
0.24 0.14 0 0.26 0.14 0 0.28 0.14 0 
0.3 0.14 0 0.32 0.14 0 0.34 0.14 0 
0.36 0.14 0 0.38 0.14 0 0.4 0.14 0 
0.42 0.14 0 0.44 0.14 0 0.46 0.14 0 
0.48 0.14 0 0.5 0.14 0 0.52 0.14 0 
0.54 0.14 0 0.56 0.14 0 0.58 0.14 0 
0.6 0.14 0 0.62 0.14 0 0.64 0.14 0 
0.66 0.14 0 0.68 0.14 0 0.7 0.14 0 
0.72 0.14 0 0.74 0.14 0 0.76 0.14 0 
0.78 0.14 0 0.8 0.14 0 0.82 0.14 0 
0.84 0.14 0 0.86 0.14 0 0.88 0.14 0 
0.9 0.14 0 0.92 0.14 0 0.94 0.14 0 
0.96 0.14 0 0.98 0.14 0 1 0.14 0 
0 0.16 0 0.02 0.16 0 0.04 0.16 0 
0.06 0.16 0 0.08 0.16 0 0.1 0.16 0 
0.12 0.16 0 0.14 0.16 0 0.16 0.16 0 
0.18 0.16 0 0.2 0.16 0 0.22 0.16 0 
0.24 0.16 0 0.26 0.16 0 0.28 0.16 0 
0.3 0.16 0 0.32 0.16 0 0.34 0.16 0 
0.36 0.16 0 0.38 0.16 0 0.4 0.16 0 
0.42 0.16 0 0.44 0.16 0 0.46 0.16 0 
0.48 0.16 0 0.5 0.16 0 0.52 0.16 0 
0.54 0.16 0 0.56 0.16 0 0.58 0.16 0 
0.6 0.16 0 0.62 0.16 0 0.64 0.16 0 
0.66 0.16 0 0.68 0.16 0 0.7 0.16 0 
0.72 0.16 0 0.74 0.16 0 0.76 0.16 0 
0.78 0.16 0 0.8 0.16 0 0.82 0.16 0 
0.84 0.16 0 0.86 0.16 0 0.88 0.16 0 
0.9 0.16 0 0.92 0.16 0 0.94 0.16 0 
0.96 0.16 0 0.98 0.16 0 1 0.16 0 
0 0.18 0 0.02 0.18 0 0.04 0.18 0 
0.06 0.18 0 0.08 0.18 0 0.1 0.18 0 
0.12 0.18 0 0.14 0.18 0 0.16 0.18 0 
0.18 0.18 0 0.2 0.18 0 0.22 0.18 0 
0.24 0.18 0 0.26 0.18 0 0.28 0.18 0 
0.3 0.18 0 0.32 0.18 0 0.34 0.18 0 
0.36 0.18 0 0.38 0.18 0 0.4 0.18 0 
0.42 0.18 0 0.44 0.18 0 0.46 0.18 0 
0.48 0.18 0 0.5 0.18 0 0.52 0.18 0 
0.54 0.18 0 0.56 0.18 0 0.58 0.18 0 
0.6 0.18 0 0.62 0.18 0 0.64 0.18 0 
0.66 0.18 0 0.68 0.18 0 0.7 0.18 0 
0.72 0.18 0 0.74 0.18 0 0.76 0.18 0 
0.78 0.18 0 0.8 0.18 0 0.82 0.18 0 
0.84 0.18 0 0.86 0.18 0 0.88 0.18 0 
0.9 0.18 0 0.92 0.18 0 0.94 0.18 0 
0.96 0.18 0 0.98 0.18 0 1 0.18 0 
0 0.2 0 0.02 0.2 0 0.04 0.2 0 
0.06 0.2 0 0.08 0.2 0 0.1 0.2 0 
0.12 0.2 0 0.14 0.2 0 0.16 0.2 0 
0.18 0.2 0 0.2 0.2 0 0.22 0.2 0 
0.24 0.2 0 0.26 0.2 0 0.28 0.2 0 
0.3 0.2 0 0.32 0.2 0 0.34 0.2 0 
0.36 0.2 0 0.38 0.2 0 0.4 0.2 0 
0.42 0.2 0 0.44 0.2 0 0.46 0.2 0 
0.48 0.2 0 0.5 0.2 0 0.52 0.2 0 
0.54 0.2 0 0.56 0.2 0 0.58 0.2 0 
0.6 0.2 0 0.62 0.2 0 0.64 0.2 0 
0.66 0.2 0 0.68 0.2 0 0.7 0.2 0 
0.72 0.2 0 0.74 0.2 0 0.76 0.2 0 
0.78 0.2 0 0.8 0.2 0 0.82 0.2 0 
0.84 0.2 0 0.86 0.2 0 0.88 0.2 0 
0.9 0.2 0 0.92 0.2 0 0.94 0.2 0 
0.96 0.2 0 0.98 0.2 0 1 0.2 0 
0 0.22 0 0.02 0.22 0 0.04 0.22 0 
0.06 0.22 0 0.08 0.22 0 0.1 0.22 0 
0.12 0.22 0 0.14 0.22 0 0.16 0.22 0 
0.18 0.22 0 0.2 0.22 0 0.22 0.22 0 
0.24 0.22 0 0.26 0.22 0 0.28 0.22 0 
0.3 0.22 0 0.32 0.22 0 0.34 0.22 0 
0.36 0.22 0 0.38 0.22 0 0.4 0.22 0 
0.42 0.22 0 0.44 0.22 0 0.46 0.22 0 
0.48 0.22 0 0.5 0.22 0 0.52 0.22 0 
0.54 0.22 0 0.56 0.22 0 0.58 0.22 0 
0.6 0.22 0 0.62 0.22 0 0.64 0.22 0 
0.66 0.22 0 0.68 0.22 0 0.7 0.22 0 
0.72 0.22 0 0.74 0.22 0 0.76 0.22 0 
0.78 0.22 0 0.8 0.22 0 0.82 0.22 0 
0.84 0.22 0 0.86 0.22 0 0.88 0.22 0 
0.9 0.22 0 0.92 0.22 0 0.94 0.22 0 
0.96 0.22 0 0.98 0.22 0 1 0.22 0 
0 0.24 0 0.02 0.24 0 0.04 0.24 0 
0.06 0.24 0 0.08 0.24 0 0.1 0.24 0 
0.12 0.24 0 0.14 0.24 0 0.16 0.24 0 
0.18 0.24 0 0.2 0.24 0 0.22 0.24 0 
0.24 0.24 0 0.26 0.24 0 0.28 0.24 0 
0.3 0.24 0 0.32 0.24 0 0.34 0.24 0 
0.36 0.24 0 0.38 0.24 0 0.4 0.24 0 
0.42 0.24 0 0.44 0.24 0 0.46 0.24 0 
0.48 0.24 0 0.5 0.24 0 0.52 0.24 0 
0.54 0.24 0 0.56 0.24 0 0.58 0.24 0 
0.6 0.24 0 0.62 0.24 0 0.64 0.24 0 
0.66 0.24 0 0.68 0.24 0 0.7 0.24 0 
0.72 0.24 0 0.74 0.24 0 0.76 0.24 0 
0.78 0.24 0 0.8 0.24 0 0.82 0.24 0 
0.84 0.24 0 0.86 0.24 0 0.88 0.24 0 
0.9 0.24 0 0.92 0.24 0 0.94 0.24 0 
0.96 0.24 0 0.98 0.24 0 1 0.24 0 
0 0.26 0 0.02 0.26 0 0.04 0.26 0 
0.06 0.26 0 0.08 0.26 0 0.1 0.26 0 
0.12 0.26 0 0.14 0.26 0 0.16 0.26 0 
0.18 0.26 0 0.2 0.26 0 0.22 0.26 0 
0.24 0.26 0 0.26 0.26 0 0.28 0.26 0 
0.3 0.26 0 0.32 0.26 0 0.34 0.26 0 
0.36 0.26 0 0.38 0.26 0 0.4 0.26 0 
0.42 0.26 0 0.44 0.26 0 0.46 0.26 0 
0.48 0.26 0 0.5 0.26 0 0.52 0.26 0 
0.54 0.26 0 0.56 0.26 0 0.58 0.26 0 
0.6 0.26 0 0.62 0.26 0 0.64 0.26 0 
0.66 0.26 0 0.68 0.26 0 0.7 0.26 0 
0.72 0.26 0 0.74 0.26 0 0.76 0.26 0 
0.78 0.26 0 0.8 0.26 0 0.82 0.26 0 
0.84 0.26 0 0.86 0.26 0 0.88 0.26 0 
0.9 0.26 0 0.92 0.26 0 0.94 0.26 0 
0.96 0.26 0 0.98 0.26 0 1 0.26 0 
0 0.28 0 0.02 0.28 0 0.04 0.28 0 
0.06 0.28 0 0.08 0.28 0 0.1 0.28 0 
0.12 0.28 0 0.14 0.28 0 0.16 0.28 0 
0.18 0.28 0 0.2 0.28 0 0.22 0.28 0 
0.24 0.28 0 0.26 0.28 0 0.28 0.28 0 
0.3 0.28 0 0.32 0.28 0 0.34 0.28 0 
0.36 0.28 0 0.38 0.28 0 0.4 0.28 0 
0.42 0.28 0 0.44 0.28 0 0.46 0.28 0 
0.48 0.28 0 0.5 0.28 0 0.52 0.28 0 
0.54 0.28 0 0.56 0.28 0 0.58 0.28 0 
0.6 0.28 0 0.62 0.28 0 0.64 0.28 0 
0.66 0.28 0 0.68 0.28 0 0.7 0.28 0 
0.72 0.28 0 0.74 0.28 0 0.76 0.28 0 
0.78 0.28 0 0.8 0.28 0 0.82 0.28 0 
0.84 0.28 0 0.86 0.28 0 0.88 0.28 0 
0.9 0.28 0 0.92 0.28 0 0.94 0.28 0 
0.96 0.28 0 0.98 0.28 0 1 0.28 0 
0 0.3 0 0.02 0.3 0 0.04 0.3 0 
0.06 0.3 0 0.08 0.3 0 0.1 0.3 0 
0.12 0.3 0 0.14 0.3 0 0.16 0.3 0 
0.18 0.3 0 0.2 0.3 0 0.22 0.3 0 
0.24 0.3 0 0.26 0.3 0 0.28 0.3 0 
0.3 0.3 0 0.32 0.3 0 0.34 0.3 0 
0.36 0.3 0 0.38 0.3 0 0.4 0.3 0 
0.42 0.3 0 0.44 0.3 0 0.46 0.3 0 
0.48 0.3 0 0.5 0.3 0 0.52 0.3 0 
0.54 0.3 0 0.56 0.3 0 0.58 0.3 0 
0.6 0.3 0 0.62 0.3 0 0.64 0.3 0 
0.66 0.3 0 0.68 0.3 0 0.7 0.3 0 
0.72 0.3 0 0.74 0.3 0 0.76 0.3 0 
0.78 0.3 0 0.8 0.3 0 0.82 0.3 0 
0.84 0.3 0 0.86 0.3 0 0.88 0.3 0 
0.9 0.3 0 0.92 0.3 0 0.94 0.3 0 
0.96 0.3 0 0.98 0.3 0 1 0.3 0 
0 0.32 0 0.02 0.32 0 0.04 0.32 0 
0.06 0.32 0 0.08 0.32 0 0.1 0.32 0 
0.12 0.32 0 0.14 0.32 0 0.16 0.32 0 
0.18 0.32 0 0.2 0.32 0 0.22 0.32 0 
0.24 0.32 0 0.26 0.32 0 0.28 0.32 0 
0.3 0.32 0 0.32 0.32 0 0.34 0.32 0 
0.36 0.32 0 0.38 0.32 0 0.4 0.32 0 
0.42 0.32 0 0.44 0.32 0 0.46 0.32 0 
0.48 0.32 0 0.5 0.32 0 0.52 0.32 0 
0.54 0.32 0 0.56 0.32 0 0.58 0.32 0 
[...]
CELL_DATA 2500
FIELD FieldData 1
pressure 1 2500 double
0.0061869075216 0.0061206859454 0.0059279601579 0.0056494785783 0.0053276988637 0.0049970974991 0.0046829661333 0.0044027750353 0.0041680923891 
0.0039863423156 0.0038622064817 0.0037986500338 0.0037976076173 0.0038603829135 0.0039878268847 0.0041803657381 0.0044379428174 0.0047599200971 
0.0051449622782 0.0055909087059 0.0060946310951 0.0066518776171 0.0072571117339 0.0079033609195 0.0085820906073 0.0092831095675 0.009994143907 
0.010701996016 0.011392738961 0.012051838879 0.012664585552 0.013216621513 0.013694535806 0.014086489718 0.014382839605 0.014576719931 
0.014664550115 0.014646432472 0.014526416087 0.01431261282 0.014017165645 0.013656085166 0.013248983862 0.01281874362 0.012391149052 
0.011994388037 0.011658288538 0.011412392189 0.011280787152 0.011268379762 0.0062534105701 0.0061843238191 0.0060192512788 0.0057896673354 
0.0055253959898 0.0052517880703 0.0049888076863 0.0047514486374 0.0045506275034 0.0043941167619 0.0042873577748 0.0042341074436 0.0042369145142 
0.0042974440321 0.004416681291 0.0045950462592 0.0048324393879 0.0051282284601 0.0054811804667 0.0058893444787 0.006349898355 0.0068589789594 
0.0074115193589 0.008001115789 0.0086199444625 0.0092587501342 0.0099059561008 0.01054958213 0.011177053238 0.011775281964 0.012331083097 
0.012831657474 0.013265127233 0.013621096175 0.013891203858 0.014069639789 0.014153584398 0.014143546927 0.014043577186 0.013861337747 
0.01360803462 0.01329821603 0.012949456732 0.012581944229 0.012217964472 0.011881232544 0.011595873144 0.011384847797 0.011267322521 
0.011255962671 0.006444530798 0.0063448254783 0.0061790669485 0.0059689611005 0.0057349475166 0.0054953075661 0.0052655124689 0.00505804436 
0.0048825519989 0.0047462064469 0.0046541495715 0.0046099486691 0.0046159997468 0.0046738534075 0.004784455427 0.004948298273 0.0051654809907 
0.0054356807844 0.0057580500036 0.0061310625128 0.0065523383453 0.0070184740449 0.0075249002869 0.0080657820557 0.0086339734788 0.0092210425056 
0.0098158871398 0.010407538782 0.0109844621 0.011534637684 0.012045957432 0.012506681212 0.012905939455 0.013234257272 0.013484070168 
0.013650198802 0.013730250137 0.013724915499 0.013638142392 0.013477165714 0.013252394806 0.012977163057 0.012667353837 0.012340917438 
0.012017284412 0.011716660097 0.011459158203 0.011263809006 0.011147666251 0.011126165833 0.0067269374002 0.0065752803539 0.0063858516614 
0.0061716487419 0.0059462489736 0.005722669569 0.0055124861054 0.0053253021442 0.0051686122184 0.0050479773525 0.0049673735845 0.0049295851088 
0.0049365613461 0.0049896998086 0.0050900372654 0.0052383406046 0.0054350992369 0.0056804347718 0.005973955175 0.0063145845845 0.0067003954338 
0.0071284608037 0.0075947368877 0.0080939819769 0.0086197193707 0.0091642561232 0.0097168832766 0.010267425324 0.010805096518 0.011318600626 
0.011796511964 0.0122277191 0.012601913933 0.012910101398 0.013145099932 0.013301999692 0.01337854485 0.013375409207 0.013296340338 
0.013148156436 0.012940591291 0.012685993882 0.012398898427 0.012095486607 0.011792964634 0.011508877589 0.011260394023 0.011063651487 
0.010933374055 0.010883208957 0.0070622944712 0.0068449833562 0.0066154873279 0.0063808067005 0.0061493999098 0.0059297698448 0.0057295221913 
0.0055548765346 0.0054105988037 0.0053002069931 0.0052262833627 0.0051907787838 0.0051952571243 0.0052410623703 0.0053294017779 0.005461344643 
0.0056377472851 0.0058591256875 0.0061255012437 0.0064362411847 0.006789907118 0.0071841180854 0.0076154322985 0.0080792539959 0.00856977585 
0.009079970879 0.0095994765927 0.010118669889 0.010627256894 0.011114363057 0.011568907168 0.011980041877 0.012337642062 0.012632815776 
0.0128584072 0.013009456858 0.013083583166 0.013081251913 0.013005906106 0.012863938475 0.012664501197 0.012419160552 0.012141416908 
0.011846120909 0.011548823849 0.011265106243 0.011009937108 0.010797133121 0.010639004438 0.010546207645 0.007414945508 0.007124944828 
0.0068462492032 0.0065816855084 0.0063352850501 0.0061111710995 0.0059129182712 0.0057433370741 0.005604551286 0.0054981988615 0.005425635839 
0.0053880938989 0.0053867847094 0.0054229521461 0.0054978698291 0.0056127843678 0.0057688135128 0.0059668138949 0.0062072320251 0.0064899475978 
0.0068141141579 0.0071780017366 0.007578849615 0.0080127413911 0.0084745170881 0.0089577373257 0.0094523590567 0.0099490655947 0.010437842357 
0.010907987823 0.011348484411 0.011748441509 0.012097592 0.012386816663 0.012608664294 0.012757830153 0.012831553567 0.012829897486 
0.012755878938 0.012615430048 0.012417183124 0.012172088971 0.011892893788 0.011593513847 0.011288357339 0.010991648151 0.010716805172 
0.01047591903 0.010279330113 0.010135190967 0.0077549603956 0.0073908089872 0.0070594472007 0.0067601186929 0.0064927228466 0.0062573148161 
0.0060538722773 0.0058822974804 0.0057425196461 0.0056345964981 0.0055587805862 0.0055155575698 0.0055056661696 0.0055300952582 0.0055900469667 
0.0056868607347 0.0058219017681 0.0059964202774 0.0062113871299 0.0064673109207 0.0067640428899 0.007100579883 0.0074748796146 0.0078837037431 
0.0083225036389 0.0087853617422 0.0092625711601 0.0097448904064 0.010222423054 0.01068444337 0.011119765013 0.011517190428 0.011866022814 
0.012156614367 0.012380916443 0.012532991102 0.012609440945 0.012609715568 0.012536259242 0.012394476062 0.012192504163 0.011940809105 
0.011651625785 0.011338295 0.011014552661 0.010693833276 0.010388640905 0.010110015738 0.0098670731084 0.0096665006843 0.0080584324713 
0.0076220094409 0.0072373472027 0.0069003897513 0.0066074429257 0.0063551835964 0.0061406937996 0.0059615234488 0.0058157312701 0.0057018950361 
0.0056191119062 0.0055670044033 0.0055457252447 0.0055559406123 0.0055987751972 0.0056757142896 0.0057884658317 0.0059387869076 0.0061282801046 
0.0063581674706 0.0066290531269 0.0069406891236 0.0072917600863 0.0076797005093 0.0081005567391 0.0085489041472 0.0090154543014 0.0094908290855 
0.0099651347567 0.010427465875 0.01086627211 0.011269817144 0.011626711994 0.011926495603 0.012160226171 0.012321039586 0.012404627691 
0.012409589629 0.012337615722 0.012193475391 0.011984797598 0.011721653423 0.011415972637 0.011080845747 0.0107297767 0.010375954289 
0.010031598759 0.0097074108943 0.0094121011267 0.0091519081333 0.0083054846878 0.0077996358415 0.0073619432912 0.0069855910422 0.0066640066099 
0.0063911606009 0.006161727993 0.0059711605685 0.0058157091531 0.0056924351969 0.0055992330799 0.0055348554774 0.0054989168097 0.0054918526195 
0.0055148270057 0.0055695919657 0.0056583053212 0.0057833132913 0.0059469050554 0.0061510491062 0.0063971237767 0.0066856558618 0.0070160798912 
0.007386528898 0.0077936671199 0.0082325752994 0.0086945349267 0.0091698328562 0.0096484996743 0.010119329523 0.010570244489 0.010988764226 
0.011362563938 0.01168009327 0.011931218118 0.012107839105 0.012204435159 0.012218479776 0.01215068312 0.012005025081 0.01178856277 
0.011511019479 0.011184187312 0.010821198718 0.010435738231 0.01004126959 0.0096503415606 0.0092740061094 0.0089213361875 0.0085989744493 
0.008478020729 0.0079055306098 0.007415702351 0.0069995248085 0.0066480155489 0.0063527400792 0.0061060951116 0.0059014566143 0.0057332722734 
0.0055971381882 0.0054898605326 0.0054094809128 0.0053552456022 0.0053275134075 0.005327610096 0.0053576406785 0.0054202671256 0.0055184568367 
0.0056552082806 0.0058332621422 0.0060548082344 0.0063211989747 0.0066326792683 0.0069881431228 0.0073849288215 0.0078186656352 0.0082814213096 
0.0087629634746 0.0092532051748 0.0097405558724 0.010212279788 0.010654973767 0.011055149713 0.011399894974 0.011677572468 0.011878512206 
0.011995638351 0.012024973129 0.011965962951 0.011821583445 0.011598199325 0.011305180579 0.010954304824 0.010559002601 0.010133522012 
0.0096920956274 0.009248182407 0.0088138287289 0.008399148746 0.0080118741218 0.008558866652 0.0079227763844 0.0073827308454 0.0069277296721 
0.0065464501929 0.0062280507846 0.0059626419633 0.0057415744313 0.0055576291197 0.0054051406601 0.0052800529978 0.0051799001904 0.0051037159524 
0.0050518861385 0.0050259604232 0.0050284332093 0.0050624970536 0.0051317705636 0.0052400044516 0.0053907715568 0.005587148765 0.0058313996529 
0.0061246676536 0.0064666921287 0.0068555621613 0.0072875238556 0.0077557144354 0.0082492273441 0.0087578602141 0.0092695972671 0.0097709527431 
0.010247450343 0.010684226441 0.011066732694 0.011381500903 0.011616920512 0.01176396873 0.011816827778 0.011773325205 0.011635143093 
0.011407761165 0.011100125888 0.010724069421 0.010293533762 0.009823680071 0.009329974287 0.0088273334283 0.008329390546 0.0078478943562 
0.0073922117237 0.0085321019206 0.0078362182505 0.0072488742713 0.0067569491649 0.0063466814622 0.0060048046514 0.0057192311109 0.0054794701817 
0.0052768726559 0.0051047455272 0.0049583593412 0.004834869216 0.0047331734635 0.0046537311266 0.0045983512362 0.0045699568432 0.0045723223685 
0.0046097840347 0.0046869255784 0.0048082438035 0.0049778008256 0.0051988714691 0.0054735968958 0.005802659068 0.0061849936205 0.0066175619471 
0.0070949386975 0.0076054312707 0.0081387790162 0.0086825522088 0.0092224663623 0.0097428535529 0.010227279669 0.01065928718 0.011023229093 
0.01130514452 0.011493612374 0.011580510495 0.011561605179 0.011436903112 0.011210715639 0.010891413154 0.010490882489 0.010023737228 
0.0095063621833 0.0089558915255 0.0083892191071 0.0078221171826 0.0072685000229 0.0067398220121 0.0083833963328 0.007632216687 0.0070009706086 
0.0064742646383 0.006035895853 0.0056702847892 0.0053633355754 0.0051029321876 0.0048791884106 0.0046845254683 0.0045136298365 0.004363332636 
0.0042324405973 0.0041215357577 0.0040327495048 0.0039695095624 0.003936257932 0.0039381401543 0.0039806679609 0.0040693591607 0.0042093605613 
0.004405061887 0.0046597120409 0.004975052561 0.0053509861445 0.0057853016777 0.0062745507304 0.0068061292309 0.0073698618974 0.007952976787 
0.0085403913654 0.0091151662988 0.0096591263858 0.010153637182 0.010580508813 0.0109229795 0.011166713213 0.011300731659 0.011318193141 
0.011216933253 0.010999697205 0.010674021021 0.010251756994 0.0097482821721 0.0091814690058 0.0085705256942 0.0079348220344 0.0072928011236 
0.0066610410975 0.0060534845648 0.0080997759134 0.0072980614118 0.0066263661129 0.0060670486584 0.0056015893383 0.005212260509 0.0048831206096 
0.0046005583591 0.0043535383305 0.0041336520494 0.0039350476133 0.003754286422 0.0035901548988 0.0034434439935 0.0033167001245 0.0032139477452 
0.0031403842621 0.0031020485428 0.003105464005 0.003157258111 0.0032637618067 0.0034305951532 0.0036622490308 0.0039616761587 0.0043299082788 
0.00476572061 0.0052681294614 0.0058237325543 0.0064226345431 0.007051845794 0.0076955419332 0.0083354829514 0.0089516196085 0.0095228907892 
0.010028192263 0.010447474082 0.010762900981 0.010959989667 0.011028622104 0.010963829409 0.010766250215 0.010442192523 0.010003268318 
0.0094656207122 0.0088488153558 0.0081745104645 0.0074650420627 0.0067420566078 0.0060252928356 0.0053315683077 0.0076692130621 0.0068217881046 
0.0061131717145 0.0055236076262 0.0050323851739 0.0046197310743 0.0042679304267 0.0039619256859 0.0036895740437 0.003441689413 0.0032119535861 
0.0029967484738 0.0027949382861 0.0026076168729 0.0024378279646 0.0022902625579 0.0021709356435 0.0020868417749 0.0020455872338 0.0020549971529 
0.0021226980325 0.0022556793688 0.0024598417034 0.0027395416373 0.003097149337 0.0035326477177 0.0040477185259 0.0046288110846 0.0052664880284 
0.0059477109171 0.0066560386487 0.0073719708217 0.0080735086598 0.0087369511274 0.0093379162948 0.0098525525197 0.01025887665 0.01053814875 
0.010676168999 0.010664368025 0.010500562429 0.010189267069 0.0097414962034 0.0091740433771 0.0085082962379 0.0077687043465 0.006981060716 
0.0061707703476 0.0053612582686 0.0045726234953 0.0070805908897 0.006192507887 0.0054508004053 0.0048336924418 0.0043183388775 0.0038829614143 
0.0035081110109 0.0031773353455 0.0028774560701 0.0025986006474 0.0023340851325 0.0020802079729 0.0018359913157 0.0016028919531 0.0013844944281 
0.0011861920395 0.001014855789 0.00087848661584 0.00078584457268 0.00074604979048 0.00076815276095 0.0008606750244 0.0010311245637 0.0012854921997 
0.0016277347597 0.0020592418096 0.0025843185399 0.0031906216116 0.0038691701308 0.0046071138983 0.0053876224746 0.0061900728654 0.0069905243175 
0.0077624838235 0.0084779593881 0.0091087765124 0.0096281025319 0.010012087721 0.010241496951 0.010303177992 0.0101912 0.0099075057544 
0.0094619587206 0.0088717300396 0.0081600537111 0.0073544652883 0.0064847109481 0.005580551823 0.004669683122 0.0037759427983 0.0063240544075 
0.0054008061122 0.0046302086444 0.00398850218 0.0034507496871 0.0029932298376 0.0025948433697 0.0022378445247 0.0019081279526 0.0015952369419 
0.0012922054075 0.0009953065078 0.00070375416984 0.00041938532528 0.00014633681555 -0.00010927934827 -0.00033970643703 -0.00053588790529 -0.00068783624592 
-0.00078503363811 -0.00081686938853 -0.00077311563184 -0.00064443929113 -0.00042294528622 -0.00010274681836 0.00031941701737 0.00084850626882 0.0014779570794 
0.0021976058857 0.0029953255376 0.0038542922354 0.004753027349 0.0056657665786 0.0065631638436 0.0074133464125 0.0081833166099 0.0088406597615 
0.0093554731014 0.0097023816753 0.0098624624119 0.0098248665144 0.0095879244844 0.0091595468871 0.0085568014541 0.0078046483946 0.006933934602 
0.0059788585545 0.004974193221 0.0039525735781 0.0029421148108 0.0053913709193 0.0044388752016 0.0036438106379 0.0029805027794 0.0024220344294 
0.00194287489 0.0015204127703 0.0011357348975 0.0007739103539 0.00042396825063 7.8698855988e-05 -0.00026563665386 -0.00060963423414 -0.00095108267381 
-0.0012852941239 -0.0016054286719 -0.0019028201843 -0.0021673145321 -0.0023876317451 -0.002551762403 -0.0026474062446 -0.0026624576169 -0.0025855378035 
-0.0024065662448 -0.0021173446017 -0.0017120723894 -0.0011874959132 -0.0005393928151 0.00021913444473 0.0010774694036 0.0020193282154 0.003022774765 
0.0040604720883 0.0051002835671 0.0061062852558 0.0070402162992 0.0078633517631 0.0085387274723 0.0090335824795 0.0093218188711 0.0093862228464 
0.0092201610389 0.0088284777763 0.0082273837868 0.0074432453569 0.0065103397593 0.0054678065074 0.0043561535612 0.0032137359364 0.0020735943608 
0.0042760631018 0.0033004707564 0.0024854141739 0.001803476638 0.0012259546007 0.00072568897513 0.00027870492964 -0.00013497068226 -0.00053102820891 
-0.00092092165977 -0.0013120986168 -0.0017083187414 -0.0021100025056 -0.0025145788913 -0.0029168199162 -0.0033091625294 -0.0036820263621 -0.0040241397379 
-0.0043228876348 -0.0045646952041 -0.004735458932 -0.0048210347101 -0.0048077878765 -0.0046832038285 -0.004436548181 -0.0040595524464 -0.0035471009655 
-0.002888953414 -0.002096948399 -0.0011799769164 -0.00015326505938 0.00096130587086 0.0021352297466 0.0033338020674 0.0045170234918 0.005641041163 
0.006660145755 0.0075292800866 0.0082069357479 0.0086582240401 0.008857820196 0.0087924155056 0.0084622946121 0.0078817067615 0.0070778305215 
0.0060883307389 0.0049577378054 0.0037330851051 0.0024593597462 0.0011753151144 0.0029734150241 0.0019809447214 0.0011503773993 0.00045280983027 
-0.00014201803024 -0.00066271077796 -0.0011344770157 -0.0015782686243 -0.0020104927015 -0.0024430714908 -0.0028836941255 -0.0033361569479 -0.00380072923 
-0.0042745106876 -0.0047517675744 -0.0052242476888 -0.0056814833438 -0.0061110963876 -0.0064991220993 -0.0068303697441 -0.0070888366344 -0.0072581902333 
-0.0073223295932 -0.0072660339684 -0.0070757063159 -0.006740235536 -0.0062520842135 -0.0055946228764 -0.0047777027642 -0.0038073239754 -0.0026968823412 
-0.0014675145813 -0.00014830313002 0.001223904458 0.0026052079982 0.0039460062835 0.0051930507958 0.0062921979859 0.0071917633585 0.0078462644875 
0.0082202146103 0.0082915178047 0.0080539542112 0.0075182652973 0.0067114806816 0.0056743698634 0.0044572164786 0.0031144232599 0.0016986681796 
0.0002553711972 0.0014805448534 0.00047742004758 -0.00036414895288 -0.0010742681261 -0.0016845213451 -0.002224783093 -0.002721373895 -0.0031961473672 
-0.0036661861562 -0.0041438683011 -0.004637135946 -0.0051498540921 -0.0056821902541 -0.0062309777632 -0.0067900475723 -0.0073505285447 -0.0079011263958 
-0.0084283979522 -0.008917041281 -0.0093502236925 -0.009709968948 -0.0099776230623 -0.010134415294 -0.01016212767 -0.010043883495 -0.0097650620304 
-0.0093143262187 -0.0086735951943 -0.0078442088604 -0.0068293774982 -0.0056399993629 -0.0042956407475 -0.0028251607518 -0.0012668855862 0.00033181046263 
0.0019156622799 0.0034235258177 0.0047912981559 0.0059556968234 0.0068587081577 0.0074523457434 0.0077031903161 0.0075960546756 0.0071360845368 
0.0063487177067 0.0052772004647 0.0039777702963 0.0025130640226 0.00094466139393 -0.00067420421179 -0.00020343278944 -0.0012110423841 -0.002059116651 
-0.0027786688296 -0.003402359087 -0.0039611399964 -0.004482307452 -0.0049885314585 -0.0054975312493 -0.0060221429156 -0.0065705993473 -0.0071469009515 
-0.0077512019274 -0.0083801711593 -0.0090273109169 -0.009683233485 -0.010335907506 -0.010970893442 -0.011571592033 -0.012119531274 -0.012594717124 
-0.012976071734 -0.01324198061 -0.013370966567 -0.01334250295 -0.013137971102 -0.012741767427 -0.012135719751 -0.011309406938 -0.010262898467 
-0.0090034906559 -0.0075481034818 -0.0059243310565 -0.0041710418875 -0.0023383567586 -0.00048680979657 0.0013144905219 0.0029908305922 0.0044660164115 
0.0056675166812 0.0065322730789 0.0070125860837 0.007081268345 0.0067351383777 0.005995985268 0.0049084252017 0.0035345824888 0.0019461555917 
0.00021498034521 -0.0015965343375 -0.0020772873782 -0.0030834258242 -0.0039336608601 -0.0046595767514 -0.0052946194854 -0.0058705958539 -0.0064156263545 
-0.0069531182643 -0.0075014129295 -0.0080738440157 -0.0086790163442 -0.0093211762437 -0.010000593096 -0.010713907872 -0.011454430308 -0.012212384865 
-0.012975118485 -0.013727291516 -0.014451078098 -0.015126404271 -0.015731252537 -0.016242060993 -0.016634243527 -0.016882853978 -0.016963408932 
-0.01685286072 -0.016530634401 -0.015979329076 -0.015175116827 -0.01411374226 -0.012797673893 -0.011239940441 -0.009465611724 -0.0075128854004 
-0.0054335676533 -0.0032926939621 -0.0011670270927 0.0008577947213 0.0026915888823 0.0042453936343 0.0054383659286 0.0062051911686 0.0065030549911 
0.0063169810259 0.0056622939164 0.0045832301769 0.00314732334 0.0014360330565 -0.00046708010312 -0.0024888387153 -0.0041376998685 -0.005136882869 
-0.0059852605277 -0.0067145823567 -0.007358740295 -0.0079501510089 -0.0085176178013 -0.0090852384014 -0.0096720080089 -0.010291848246 -0.010953865706 
-0.011662705921 -0.012418917951 -0.013219281739 -0.01405707755 -0.014922296714 -0.01580180686 -0.01667949401 -0.017536409352 -0.018350951308 
-0.019099114905 -0.019754840953 -0.020290497167 -0.020677522129 -0.020887261121 -0.020892023417 -0.020666413277 -0.020189131836 -0.019429517723 
-0.018374114727 -0.01701933687 -0.015373001971 -0.0134562335 -0.011305090651 -0.0089716603059 -0.0065242929656 -0.0040466320621 -0.0016350956624 
0.00060545375375 0.0025679437518 0.0041510352856 0.005268180272 0.0058567358347 0.0058856583307 0.0053600869027 0.0043212958965 0.002841155739 
0.0010113270676 -0.0010713788775 -0.0033211877729 -0.0063794209373 -0.0073669221893 -0.0082099032212 -0.0089398033754 -0.0095905876221 -0.010195041262 
-0.010782540838 -0.011377877831 -0.01200079015 -0.012665934016 -0.013383098842 -0.014157527411 -0.014990251616 -0.015878390954 -0.016815389407 
-0.017791187757 -0.018792343613 -0.01980212162 -0.020800582638 -0.021764704426 -0.022668568709 -0.023483650877 -0.024179249309 -0.024723091728 
-0.025082156669 -0.025223753082 -0.025116928343 -0.024734400888 -0.024045165659 -0.023020222869 -0.021649028702 -0.019932899898 -0.017887500419 
-0.015545074862 -0.012956258834 -0.010191092254 -0.0073387966979 -0.0045058520588 -0.0018119464203 0.00061647932961 0.0026550722237 0.0041923042948 