# vtk DataFile Version 4.1
vtk output
ASCII
DATASET STRUCTURED_GRID
DIMENSIONS 51 51 1
POINTS 2601 float
0 0 0 0.02 0 0 0.04 0 0 
0.06 0 0 0.08 0 0 0.1 0 0 
0.12 0 0 0.14 0 0 0.16 0 0 
0.18 0 0 0.2 0 0 0.22 0 0 
0.24 0 0 0.26 0 0 0.28 0 0 
0.3 0 0 0.32 0 0 0.34 0 0 
0.36 0 0 0.38 0 0 0.4 0 0 
0.42 0 0 0.44 0 0 0.46 0 0 
0.48 0 0 0.5 0 0 0.52 0 0 
0.54 0 0 0.56 0 0 0.58 0 0 
0.6 0 0 0.62 0 0 0.64 0 0 
0.66 0 0 0.68 0 0 0.7 0 0 
0.72 0 0 0.74 0 0 0.76 0 0 
0.78 0 0 0.8 0 0 0.82 0 0 
0.84 0 0 0.86 0 0 0.88 0 0 
0.9 0 0 0.92 0 0 0.94 0 0 
0.96 0 0 0.98 0 0 1 0 0 
0 0.02 0 0.02 0.02 0 0.04 0.02 0 
0.06 0.02 0 0.08 0.02 0 0.1 0.02 0 
0.12 0.02 0 0.14 0.02 0 0.16 0.02 0 
0.18 0.02 0 0.2 0.02 0 0.22 0.02 0 
0.24 0.02 0 0.26 0.02 0 0.28 0.02 0 
0.3 0.02 0 0.32 0.02 0 0.34 0.02 0 
0.36 0.02 0 0.38 0.02 0 0.4 0.02 0 
0.42 0.02 0 0.44 0.02 0 0.46 0.02 0 
0.48 0.02 0 0.5 0.02 0 0.52 0.02 0 
0.54 0.02 0 0.56 0.02 0 0.58 0.02 0 
0.6 0.02 0 0.62 0.02 0 0.64 0.02 0 
0.66 0.02 0 0.68 0.02 0 0.7 0.02 0 
0.72 0.02 0 0.74 0.02 0 0.76 0.02 0 
0.78 0.02 0 0.8 0.02 0 0.82 0.02 0 
0.84 0.02 0 0.86 0.02 0 0.88 0.02 0 
0.9 0.02 0 0.92 0.02 0 0.94 0.02 0 
0.96 0.02 0 0.98 0.02 0 1 0.02 0 
0 0.04 0 0.02 0.04 0 0.04 0.04 0 
0.06 0.04 0 0.08 0.04 0 0.1 0.04 0 
0.12 0.04 0 0.14 0.04 0 0.16 0.04 0 
0.18 0.04 0 0.2 0.04 0 0.22 0.04 0 
0.24 0.04 0 0.26 0.04 0 0.28 0.04 0 
0.3 0.04 0 0.32 0.04 0 0.34 0.04 0 
0.36 0.04 0 0.38 0.04 0 0.4 0.04 0 
0.42 0.04 0 0.44 0.04 0 0.46 0.04 0 
0.48 0.04 0 0.5 0.04 0 0.52 0.04 0 
0.54 0.04 0 0.56 0.04 0 0.58 0.04 0 
0.6 0.04 0 0.62 0.04 0 0.64 0.04 0 
0.66 0.04 0 0.68 0.04 0 0.7 0.04 0 
0.72 0.04 0 0.74 0.04 0 0.76 0.04 0 
0.78 0.04 0 0.8 0.04 0 0.82 0.04 0 
0.84 0.04 0 0.86 0.04 0 0.88 0.04 0 
0.9 0.04 0 0.92 0.04 0 0.94 0.04 0 
0.96 0.04 0 0.98 0.04 0 1 0.04 0 
0 0.06 0 0.02 0.06 0 0.04 0.06 0 
0.06 0.06 0 0.08 0.06 0 0.1 0.06 0 
0.12 0.06 0 0.14 0.06 0 0.16 0.06 0 
0.18 0.06 0 0.2 0.06 0 0.22 0.06 0 
0.24 0.06 0 0.26 0.06 0 0.28 0.06 0 
0.3 0.06 0 0.32 0.06 0 0.34 0.06 0 
0.36 0.06 0 0.38 0.06 0 0.4 0.06 0 
0.42 0.06 0 0.44 0.06 0 0.46 0.06 0 
0.48 0.06 0 0.5 0.06 0 0.52 0.06 0 
0.54 0.06 0 0.56 0.06 0 0.58 0.06 0 
0.6 0.06 0 0.62 0.06 0 0.64 0.06 0 
0.66 0.06 0 0.68 0.06 0 0.7 0.06 0 
0.72 0.06 0 0.74 0.06 0 0.76 0.06 0 
0.78 0.06 0 0.8 0.06 0 0.82 0.06 0 
0.84 0.06 0 0.86 0.06 0 0.88 0.06 0 
0.9 0.06 0 0.92 0.06 0 0.94 0.06 0 
0.96 0.06 0 0.98 0.06 0 1 0.06 0 
0 0.08 0 0.02 0.08 0 0.04 0.08 0 
0.06 0.08 0 0.08 0.08 0 0.1 0.08 0 
0.12 0.08 0 0.14 0.08 0 0.16 0.08 0 
0.18 0.08 0 0.2 0.08 0 0.22 0.08 0 
0.24 0.08 0 0.26 0.08 0 0.28 0.08 0 
0.3 0.08 0 0.32 0.08 0 0.34 0.08 0 
0.36 0.08 0 0.38 0.08 0 0.4 0.08 0 
0.42 0.08 0 0.44 0.08 0 0.46 0.08 0 
0.48 0.08 0 0.5 0.08 0 0.52 0.08 0 
0.54 0.08 0 0.56 0.08 0 0.58 0.08 0 
0.6 0.08 0 0.62 0.08 0 0.64 0.08 0 
0.66 0.08 0 0.68 0.08 0 0.7 0.08 0 
0.72 0.08 0 0.74 0.08 0 0.76 0.08 0 
0.78 0.08 0 0.8 0.08 0 0.82 0.08 0 
0.84 0.08 0 0.86 0.08 0 0.88 0.08 0 
0.9 0.08 0 0.92 0.08 0 0.94 0.08 0 
0.96 0.08 0 0.98 0.08 0 1 0.08 0 
0 0.1 0 0.02 0.1 0 0.04 0.1 0 
0.06 0.1 0 0.08 0.1 0 0.1 0.1 0 
0.12 0.1 0 0.14 0.1 0 0.16 0.1 0 
0.18 0.1 0 0.2 0.1 0 0.22 0.1 0 
0.24 0.1 0 0.26 0.1 0 0.28 0.1 0 
0.3 0.1 0 0.32 0.1 0 0.34 0.1 0 
0.36 0.1 0 0.38 0.1 0 0.4 0.1 0 
0.42 0.1 0 0.44 0.1 0 0.46 0.1 0 
0.48 0.1 0 0.5 0.1 0 0.52 0.1 0 
0.54 0.1 0 0.56 0.1 0 0.58 0.1 0 
0.6 0.1 0 0.62 0.1 0 0.64 0.1 0 
0.66 0.1 0 0.68 0.1 0 0.7 0.1 0 
0.72 0.1 0 0.74 0.1 0 0.76 0.1 0 
0.78 0.1 0 0.8 0.1 0 0.82 0.1 0 
0.84 0.1 0 0.86 0.1 0 0.88 0.1 0 
0.9 0.1 0 0.92 0.1 0 0.94 0.1 0 
0.96 0.1 0 0.98 0.1 0 1 0.1 0 
0 0.12 0 0.02 0.12 0 0.04 0.12 0 
0.06 0.12 0 0.08 0.12 0 0.1 0.12 0 
0.12 0.12 0 0.14 0.12 0 0.16 0.12 0 
0.18 0.12 0 0.2 0.12 0 0.22 0.12 0 
0.24 0.12 0 0.26 0.12 0 0.28 0.12 0 
0.3 0.12 0 0.32 0.12 0 0.34 0.12 0 
0.36 0.12 0 0.38 0.12 0 0.4 0.12 0 
0.42 0.12 0 0.44 0.12 0 0.46 0.12 0 
0.48 0.12 0 0.5 0.12 0 0.52 0.12 0 
0.54 0.12 0 0.56 0.12 0 0.58 0.12 0 
0.6 0.12 0 0.62 0.12 0 0.64 0.12 0 
0.66 0.12 0 0.68 0.12 0 0.7 0.12 0 
0.72 0.12 0 0.74 0.12 0 0.76 0.12 0 
0.78 0.12 0 0.8 0.12 0 0.82 0.12 0 
0.84 0.12 0 0.86 0.12 0 0.88 0.12 0 
0.9 0.12 0 0.92 0.12 0 0.94 0.12 0 
0.96 0.12 0 0.98 0.12 0 1 0.12 0 
0 0.14 0 0.02 0.14 0 0.04 0.14 0 
0.06 0.14 0 0.08 0.14 0 0.1 0.14 0 
0.12 0.14 0 0.14 0.14 0 0.16 0.14 0 
0.18 0.14 0 0.2 0.14 0 0.22 0.14 0 
0.24 0.14 0 0.26 0.14 0 0.28 0.14 0 
0.3 0.14 0 0.32 0.14 0 0.34 0.14 0 
0.36 0.14 0 0.38 0.14 0 0.4 0.14 0 
0.42 0.14 0 0.44 0.14 0 0.46 0.14 0 
0.48 0.14 0 0.5 0.14 0 0.52 0.14 0 
0.54 0.14 0 0.56 0.14 0 0.58 0.14 0 
0.6 0.14 0 0.62 0.14 0 0.64 0.14 0 
0.66 0.14 0 0.68 0.14 0 0.7 0.14 0 
0.72 0.14 0 0.74 0.14 0 0.76 0.14 0 
0.78 0.14 0 0.8 0.14 0 0.82 0.14 0 
0.84 0.14 0 0.86 0.14 0 0.88 0.14 0 
0.9 0.14 0 0.92 0.14 0 0.94 0.14 0 
0.96 0.14 0 0.98 0.14 0 1 0.14 0 
0 0.16 0 0.02 0.16 0 0.04 0.16 0 
0.06 0.16 0 0.08 0.16 0 0.1 0.16 0 
0.12 0.16 0 0.14 0.16 0 0.16 0.16 0 
0.18 0.16 0 0.2 0.16 0 0.22 0.16 0 
0.24 0.16 0 0.26 0.16 0 0.28 0.16 0 
0.3 0.16 0 0.32 0.16 0 0.34 0.16 0 
0.36 0.16 0 0.38 0.16 0 0.4 0.16 0 
0.42 0.16 0 0.44 0.16 0 0.46 0.16 0 
0.48 0.16 0 0.5 0.16 0 0.52 0.16 0 
0.54 0.16 0 0.56 0.16 0 0.58 0.16 0 
0.6 0.16 0 0.62 0.16 0 0.64 0.16 0 
0.66 0.16 0 0.68 0.16 0 0.7 0.16 0 
0.72 0.16 0 0.74 0.16 0 0.76 0.16 0 
0.78 0.16 0 0.8 0.16 0 0.82 0.16 0 
0.84 0.16 0 0.86 0.16 0 0.88 0.16 0 
0.9 0.16 0 0.92 0.16 0 0.94 0.16 0 
0.96 0.16 0 0.98 0.16 0 1 0.16 0 
0 0.18 0 0.02 0.18 0 0.04 0.18 0 
0.06 0.18 0 0.08 0.18 0 0.1 0.18 0 
0.12 0.18 0 0.14 0.18 0 0.16 0.18 0 
0.18 0.18 0 0.2 0.18 0 0.22 0.18 0 
0.24 0.18 0 0.26 0.18 0 0.28 0.18 0 
0.3 0.18 0 0.32 0.18 0 0.34 0.18 0 
0.36 0.18 0 0.38 0.18 0 0.4 0.18 0 
0.42 0.18 0 0.44 0.18 0 0.46 0.18 0 
0.48 0.18 0 0.5 0.18 0 0.52 0.18 0 
0.54 0.18 0 0.56 0.18 0 0.58 0.18 0 
0.6 0.18 0 0.62 0.18 0 0.64 0.18 0 
0.66 0.18 0 0.68 0.18 0 0.7 0.18 0 
0.72 0.18 0 0.74 0.18 0 0.76 0.18 0 
0.78 0.18 0 0.8 0.18 0 0.82 0.18 0 
0.84 0.18 0 0.86 0.18 0 0.88 0.18 0 
0.9 0.18 0 0.92 0.18 0 0.94 0.18 0 
0.96 0.18 0 0.98 0.18 0 1 0.18 0 
0 0.2 0 0.02 0.2 0 0.04 0.2 0 
0.06 0.2 0 0.08 0.2 0 0.1 0.2 0 
0.12 0.2 0 0.14 0.2 0 0.16 0.2 0 
0.18 0.2 0 0.2 0.2 0 0.22 0.2 0 
0.24 0.2 0 0.26 0.2 0 0.28 0.2 0 
0.3 0.2 0 0.32 0.2 0 0.34 0.2 0 
0.36 0.2 0 0.38 0.2 0 0.4 0.2 0 
0.42 0.2 0 0.44 0.2 0 0.46 0.2 0 
0.48 0.2 0 0.5 0.2 0 0.52 0.2 0 
0.54 0.2 0 0.56 0.2 0 0.58 0.2 0 
0.6 0.2 0 0.62 0.2 0 0.64 0.2 0 
0.66 0.2 0 0.68 0.2 0 0.7 0.2 0 
0.72 0.2 0 0.74 0.2 0 0.76 0.2 0 
0.78 0.2 0 0.8 0.2 0 0.82 0.2 0 
0.84 0.2 0 0.86 0.2 0 0.88 0.2 0 
0.9 0.2 0 0.92 0.2 0 0.94 0.2 0 
0.96 0.2 0 0.98 0.2 0 1 0.2 0 
0 0.22 0 0.02 0.22 0 0.04 0.22 0 
0.06 0.22 0 0.08 0.22 0 0.1 0.22 0 
0.12 0.22 0 0.14 0.22 0 0.16 0.22 0 
0.18 0.22 0 0.2 0.22 0 0.22 0.22 0 
0.24 0.22 0 0.26 0.22 0 0.28 0.22 0 
0.3 0.22 0 0.32 0.22 0 0.34 0.22 0 
0.36 0.22 0 0.38 0.22 0 0.4 0.22 0 
0.42 0.22 0 0.44 0.22 0 0.46 0.22 0 
0.48 0.22 0 0.5 0.22 0 0.52 0.22 0 
0.54 0.22 0 0.56 0.22 0 0.58 0.22 0 
0.6 0.22 0 0.62 0.22 0 0.64 0.22 0 
0.66 0.22 0 0.68 0.22 0 0.7 0.22 0 
0.72 0.22 0 0.74 0.22 0 0.76 0.22 0 
0.78 0.22 0 0.8 0.22 0 0.82 0.22 0 
0.84 0.22 0 0.86 0.22 0 0.88 0.22 0 
0.9 0.22 0 0.92 0.22 0 0.94 0.22 0 
0.96 0.22 0 0.98 0.22 0 1 0.22 0 
0 0.24 0 0.02 0.24 0 0.04 0.24 0 
0.06 0.24 0 0.08 0.24 0 0.1 0.24 0 
0.12 0.24 0 0.14 0.24 0 0.16 0.24 0 
0.18 0.24 0 0.2 0.24 0 0.22 0.24 0 
0.24 0.24 0 0.26 0.24 0 0.28 0.24 0 
0.3 0.24 0 0.32 0.24 0 0.34 0.24 0 
0.36 0.24 0 0.38 0.24 0 0.4 0.24 0 
0.42 0.24 0 0.44 0.24 0 0.46 0.24 0 
0.48 0.24 0 0.5 0.24 0 0.52 0.24 0 
0.54 0.24 0 0.56 0.24 0 0.58 0.24 0 
0.6 0.24 0 0.62 0.24 0 0.64 0.24 0 
0.66 0.24 0 0.68 0.24 0 0.7 0.24 0 
0.72 0.24 0 0.74 0.24 0 0.76 0.24 0 
0.78 0.24 0 0.8 0.24 0 0.82 0.24 0 
0.84 0.24 0 0.86 0.24 0 0.88 0.24 0 
0.9 0.24 0 0.92 0.24 0 0.94 0.24 0 
0.96 0.24 0 0.98 0.24 0 1 0.24 0 
0 0.26 0 0.02 0.26 0 0.04 0.26 0 
0.06 0.26 0 0.08 0.26 0 0.1 0.26 0 
0.12 0.26 0 0.14 0.26 0 0.16 0.26 0 
0.18 0.26 0 0.2 0.26 0 0.22 0.26 0 
0.24 0.26 0 0.26 0.26 0 0.28 0.26 0 
0.3 0.26 0 0.32 0.26 0 0.34 0.26 0 
0.36 0.26 0 0.38 0.26 0 0.4 0.26 0 
0.42 0.26 0 0.44 0.26 0 0.46 0.26 0 
0.48 0.26 0 0.5 0.26 0 0.52 0.26 0 
0.54 0.26 0 0.56 0.26 0 0.58 0.26 0 
0.6 0.26 0 0.62 0.26 0 0.64 0.26 0 
0.66 0.26 0 0.68 0.26 0 0.7 0.26 0 
0.72 0.26 0 0.74 0.26 0 0.76 0.26 0 
0.78 0.26 0 0.8 0.26 0 0.82 0.26 0 
0.84 0.26 0 0.86 0.26 0 0.88 0.26 0 
0.9 0.26 0 0.92 0.26 0 0.94 0.26 0 
0.96 0.26 0 0.98 0.26 0 1 0.26 0 
0 0.28 0 0.02 0.28 0 0.04 0.28 0 
0.06 0.28 0 0.08 0.28 0 0.1 0.28 0 
0.12 0.28 0 0.14 0.28 0 0.16 0.28 0 
0.18 0.28 0 0.2 0.28 0 0.22 0.28 0 
0.24 0.28 0 0.26 0.28 0 0.28 0.28 0 
0.3 0.28 0 0.32 0.28 0 0.34 0.28 0 
0.36 0.28 0 0.38 0.28 0 0.4 0.28 0 
0.42 0.28 0 0.44 0.28 0 0.46 0.28 0 
0.48 0.28 0 0.5 0.28 0 0.52 0.28 0 
0.54 0.28 0 0.56 0.28 0 0.58 0.28 0 
0.6 0.28 0 0.62 0.28 0 0.64 0.28 0 
0.66 0.28 0 0.68 0.28 0 0.7 0.28 0 
0.72 0.28 0 0.74 0.28 0 0.76 0.28 0 
0.78 0.28 0 0.8 0.28 0 0.82 0.28 0 
0.84 0.28 0 0.86 0.28 0 0.88 0.28 0 
0.9 0.28 0 0.92 0.28 0 0.94 0.28 0 
0.96 0.28 0 0.98 0.28 0 1 0.28 0 
0 0.3 0 0.02 0.3 0 0.04 0.3 0 
0.06 0.3 0 0.08 0.3 0 0.1 0.3 0 
0.12 0.3 0 0.14 0.3 0 0.16 0.3 0 
0.18 0.3 0 0.2 0.3 0 0.22 0.3 0 
0.24 0.3 0 0.26 0.3 0 0.28 0.3 0 
0.3 0.3 0 0.32 0.3 0 0.34 0.3 0 
0.36 0.3 0 0.38 0.3 0 0.4 0.3 0 
0.42 0.3 0 0.44 0.3 0 0.46 0.3 0 
0.48 0.3 0 0.5 0.3 0 0.52 0.3 0 
0.54 0.3 0 0.56 0.3 0 0.58 0.3 0 
0.6 0.3 0 0.62 0.3 0 0.64 0.3 0 
0.66 0.3 0 0.68 0.3 0 0.7 0.3 0 
0.72 0.3 0 0.74 0.3 0 0.76 0.3 0 
0.78 0.3 0 0.8 0.3 0 0.82 0.3 0 
0.84 0.3 0 0.86 0.3 0 0.88 0.3 0 
0.9 0.3 0 0.92 0.3 0 0.94 0.3 0 
0.96 0.3 0 0.98 0.3 0 1 0.3 0 
0 0.32 0 0.02 0.32 0 0.04 0.32 0 
0.06 0.32 0 0.08 0.32 0 0.1 0.32 0 
0.12 0.32 0 0.14 0.32 0 0.16 0.32 0 
0.18 0.32 0 0.2 0.32 0 0.22 0.32 0 
0.24 0.32 0 0.26 0.32 0 0.28 0.32 0 
0.3 0.32 0 0.32 0.32 0 0.34 0.32 0 
0.36 0.32 0 0.38 0.32 0 0.4 0.32 0 
0.42 0.32 0 0.44 0.32 0 0.46 0.32 0 
0.48 0.32 0 0.5 0.32 0 0.52 0.32 0 
0.54 0.32 0 0.56 0.32 0 0.58 0.32 0 
[...]
CELL_DATA 2500
FIELD FieldData 1
pressure 1 2500 double
0.0061857838364 0.0061209274924 0.0059295780938 0.0056515495633 0.0053292424376 0.0049975098021 0.0046821601523 0.0044010899727 0.0041660882076 
0.0039845811169 0.0038610859233 0.0037983208824 0.0037979800771 0.0038612021475 0.00398878121 0.0041811875212 0.0044384724497 0.0047601216733 
0.0051448979304 0.0055906906169 0.006094372979 0.006651661659 0.0072569766679 0.0079033077337 0.0085820974497 0.0092831475702 0.0099941884668 
0.010702032005 0.011392760595 0.012051846913 0.012664583952 0.013216614902 0.013694527988 0.014086483099 0.014382835201 0.014576717723 
0.014664549547 0.014646432875 0.014526416942 0.014312613807 0.014017166586 0.013656085962 0.013248984458 0.012818744011 0.012391149281 
0.011994388175 0.011658288648 0.011412392311 0.0112807873 0.011268379929 0.0062536771241 0.006185262736 0.0060200244108 0.005789729072 
0.0055246740021 0.005250564977 0.0049875086362 0.0047504525047 0.0045501566109 0.004394206401 0.0042878852455 0.0042348573205 0.0042376565392 
0.0042980001862 0.0044169642035 0.0045950626884 0.0048322648896 0.0051279675239 0.0054809282084 0.0058891619323 0.0063498058969 0.0068589646276 
0.0074115543348 0.0080011694067 0.008619993851 0.0092587836522 0.0099059718296 0.010549584017 0.011177047177 0.011775273175 0.012331075037 
0.012831651814 0.013265124311 0.013621095515 0.013891204631 0.01406964118 0.014153585829 0.014143548115 0.014043578074 0.013861338376 
0.01360803504 0.013298216284 0.012949456863 0.012581944293 0.012217964529 0.011881232631 0.011595873273 0.011384847961 0.0112673227 
0.011255962856 0.0064453729255 0.0063449065625 0.0061781916195 0.0059676129424 0.0057337744941 0.005494779056 0.0052657683133 0.005058926284 
0.0048837326955 0.0047473323626 0.0046549493588 0.004610290818 0.0046158993235 0.0046734371412 0.0047839025981 0.0049477791928 0.0051651119489 
0.0054355055663 0.0057580475962 0.0061311722981 0.0065524901885 0.0070186118904 0.0075249934134 0.0080658244138 0.0086339756699 0.0092210218513 
0.0098158598026 0.010407515462 0.010984447418 0.011534631695 0.012045957825 0.012506685114 0.01290594446 0.013234261799 0.01348407345 
0.013650200718 0.013730250962 0.013724915653 0.013638142244 0.013477165492 0.013252394613 0.012977162935 0.012667353804 0.012340917506 
0.012017284573 0.01171666032 0.011459158453 0.011263809254 0.011147666484 0.011126166057 0.0067271021169 0.0065744048454 0.0063846100118 
0.0061708605727 0.0059463606431 0.0057236503399 0.0055139622463 0.0053267860949 0.005169698999 0.0050484512955 0.0049672271871 0.0049289756797 
0.0049357336621 0.0049889014356 0.0050894506277 0.0052380480988 0.0054350850696 0.0056806149814 0.0059742201315 0.0063148377209 0.0067005767584 
0.0071285517332 0.0075947506785 0.008093947736 0.0086196673838 0.009164208604 0.0097168514347 0.010267410922 0.010805095664 0.01131860753 
0.011796521481 0.012227727829 0.012601920247 0.012910104979 0.013145101247 0.013301999537 0.013378544012 0.013375408267 0.013296339601 
0.013148155986 0.012940591105 0.012685993906 0.012398898608 0.012095486898 0.011792964977 0.011508877931 0.011260394336 0.01106365176 
0.010933374301 0.010883209195 0.0070617886935 0.0068441826266 0.0066150969817 0.006381164112 0.0061503924573 0.0059310058492 0.0057305721227 
0.005555450191 0.0054106093631 0.0052997453652 0.0052255488498 0.0051900010676 0.0051946293781 0.0052406977239 0.0053293200655 0.0054614881109 
0.0056380152171 0.0058594134918 0.0061257309543 0.0064363758537 0.0067899484195 0.0071840926047 0.0076153746876 0.0080791936906 0.0085697306094 
0.0090799465143 0.009599470468 0.010118675465 0.010627267405 0.011114373571 0.011568915102 0.011980046549 0.0123376439 0.012632815664 
0.012858406074 0.013009455473 0.013083582004 0.013081251174 0.013005905783 0.012863938459 0.012664501381 0.012419160854 0.012141417273 
0.011846121292 0.011548824209 0.011265106555 0.011009937371 0.010797133348 0.010639004652 0.01054620786 0.0074145566652 0.0071248462426 
0.0068465759144 0.0065822690302 0.0063358369303 0.0061114566894 0.0059128544085 0.0057429869493 0.0056040582419 0.0054977151144 0.0054252762493 
0.0053879167675 0.0053867912342 0.0054230983666 0.0054980870166 0.0056130022924 0.0057689797035 0.0059669037778 0.0062072486144 0.0064899129501 
0.0068140570687 0.0071779468503 0.0075788113912 0.0080127235358 0.0084745157505 0.0089577455102 0.0094523701135 0.0099490750894 0.010437848372 
0.010907990358 0.011348484459 0.011748440255 0.012097590365 0.012386815203 0.012608663273 0.012757829631 0.012831553471 0.012829897678 
0.012755879267 0.012615430409 0.012417183469 0.012172089289 0.011892894079 0.01159351411 0.011288357567 0.010991648348 0.01071680535 
0.010475919201 0.010279330289 0.010135191148 0.0077550959162 0.0073911015258 0.0070596547124 0.0067600671787 0.0064923868607 0.0062568125781 
0.0060533890556 0.0058819896555 0.0057424551675 0.0056347508515 0.0055590704732 0.0055158831802 0.0055059433141 0.0055302726009 0.0055901102816 
0.0056868271904 0.005821807705 0.005996306927 0.0062112885986 0.0064672470915 0.0067640180459 0.0071005862321 0.0074749034316 0.0078837314851 
0.0083225259536 0.0087853747059 0.0092625751994 0.0097448882919 0.010222418057 0.010684438102 0.01111976098 0.011517188102 0.011866021982 
0.012156614546 0.012380917153 0.01253299198 0.012609441769 0.012609716221 0.012536259693 0.012394476344 0.012192504334 0.011940809222 
0.011651625889 0.011338295107 0.011014552777 0.010693833405 0.010388641046 0.010110015891 0.0098670732678 0.0096665008443 0.0080588051045 
0.0076221271997 0.007237072967 0.00689983506 0.0066068437774 0.0063547811039 0.0061406289733 0.0059617940147 0.0058162192148 0.0057024344857 
0.0056195560086 0.0055672653857 0.0055457838044 0.0055558333923 0.0055985710902 0.0056754883773 0.0057882780438 0.00593867023 0.006128239436 
0.0063581865851 0.0066291055612 0.0069407487749 0.007291808418 0.0076797291925 0.0081005662922 0.0085489002865 0.0090154440454 0.0094908180895 
0.0099651263047 0.01042746105 0.010866270529 0.011269817743 0.011626713648 0.011926497472 0.012160227777 0.012321040745 0.01240462841 
0.012409589996 0.012337615854 0.012193475401 0.01198479757 0.011721653412 0.011415972667 0.01108084582 0.010729776812 0.01037595443 
0.010031598914 0.0097074110555 0.0094121012847 0.0091519082857 0.0083056783003 0.0077994674529 0.0073615248635 0.0069851680849 0.0066637947677 
0.0063912611436 0.0061621034994 0.0059716742895 0.0058161973274 0.0056927716094 0.0055993613436 0.0055347881324 0.0054987141206 0.0054915947502 
0.0055145884554 0.0055694234432 0.0056582261284 0.0057833143914 0.0059469594904 0.0061511246628 0.0063971935158 0.0066857039426 0.0070161022775 
0.0073865303034 0.0077936563389 0.0082325608859 0.0086945226687 0.009169825245 0.0096484967062 0.010119329903 0.010570246634 0.010988766831 
0.011362566208 0.011680094882 0.011931219065 0.012107839542 0.012204435278 0.012218479737 0.012150683036 0.01200502502 0.01178856276 
0.011511019526 0.01118418741 0.010821198855 0.010435738393 0.010041269762 0.0096503417312 0.0092740062721 0.008921336339 0.0085989745929 
0.0084779899548 0.0079053663593 0.0074155502569 0.0069995041221 0.0066481635193 0.0063530096661 0.006106389242 0.0059016789376 0.0057333662931 
0.0055970990603 0.0054897231518 0.0054092983294 0.0053550697278 0.0053273825088 0.0053275427689 0.0053576354821 0.0054203073852 0.0055185188433 
0.0056552696811 0.0058333077515 0.0060548321426 0.0063212032897 0.0066326708389 0.0069881298691 0.0073849169302 0.0078186582362 0.0082814187239 
0.0087629643707 0.0092532077786 0.009740558758 0.01021228214 0.010654975304 0.0110551505 0.011399895231 0.01167757243 0.011878512065 
0.011995638228 0.012024973078 0.011965962982 0.011821583542 0.011598199466 0.011305180747 0.010954305003 0.010559002784 0.010133522192 
0.0096920957966 0.0092481825624 0.008813828871 0.0083991488772 0.0080118742467 0.0085588415678 0.0079228281658 0.0073828451989 0.0069278584493 
0.0065465393712 0.0062280604083 0.00596256299 0.0057414321222 0.0055574696421 0.0054050093809 0.0052799774769 0.0051798852731 0.005103749237 
0.0050519471558 0.0050260282321 0.0050284910914 0.0050625350466 0.0051317861456 0.0052400012851 0.0053907568662 0.0055871304308 0.0058313839269 
0.0061246579918 0.006466689154 0.0068555643802 0.0072875287686 0.0077557196592 0.008249231351 0.0087578624852 0.0092695980355 0.0097709525663 
0.010247449766 0.010684225842 0.011066732262 0.011381500687 0.011616920492 0.011763968853 0.011816827986 0.011773325449 0.011635143337 
0.011407761389 0.011100126089 0.0107240696 0.010293533924 0.0098236802177 0.0093299744188 0.0088273335481 0.0083293906562 0.0078478944596 
0.0073922118221 0.0085322194344 0.0078363987775 0.007248987361 0.0067569228567 0.0063465136309 0.0060045486707 0.005718968967 0.0054792795488 
0.0052767991774 0.005104791205 0.0049584898433 0.0048350332744 0.0047333232647 0.0046538353504 0.004598398688 0.0045699533477 0.0045722844603 
0.0046097318328 0.0046868765686 0.0048082089945 0.004977783842 0.0051988700207 0.0054736054657 0.0058026715935 0.0061850053054 0.0066175700903 
0.0070949426451 0.0076054318033 0.0081387775418 0.0086825500819 0.0092224644912 0.0097428523351 0.010227279126 0.010659287137 0.011023229343 
0.011305144896 0.011493612767 0.011580510849 0.01156160547 0.011436903338 0.011210715814 0.010891413294 0.010490882608 0.010023737336 
0.0095063622835 0.0089558916187 0.0083892191954 0.0078221172657 0.0072685001008 0.0067398220837 0.0083835689838 0.0076323327988 0.0070009359521 
0.0064740859512 0.0060356425741 0.0056700496241 0.0053631964122 0.0051029255577 0.0048793023003 0.0046847116453 0.0045138272151 0.0043634898834 
0.0042325294338 0.0041215528887 0.0040327104979 0.0039694395807 0.0039361828026 0.0039380795667 0.0039806319105 0.0040693480318 0.0042093680087 
0.0044050788516 0.0046597302947 0.0049750667519 0.0053509941865 0.0057853040395 0.006274549259 0.0068061260386 0.0073698586499 0.0079529744132 
0.0085403901117 0.0091151659814 0.0096591266544 0.010153637704 0.010580509368 0.010922979976 0.011166713574 0.011300731914 0.011318193313 
0.011216933368 0.010999697289 0.010674021093 0.010251757065 0.0097482822457 0.0091814690806 0.0085705257682 0.0079348221058 0.0072928011891 
0.0066610411552 0.0060534846129 0.0080998628938 0.0072980612227 0.0066262757366 0.0060669169737 0.0056014769452 0.0052122145689 0.0048831586485 
0.0046006654186 0.0043536773387 0.0041337810904 0.0039351353496 0.00375431983 0.0035901385451 0.0034433939233 0.0033166364747 0.0032138887455 
0.003140342337 0.0031020285448 0.0031054637239 0.0031572707426 0.0032637792475 0.0034306108107 0.0036622593105 0.0039616804484 0.0043299079568 
0.0047657178008 0.0052681260761 0.0058237298093 0.0064226329224 0.0070518452365 0.0076955421034 0.0083354834747 0.0089516201983 0.009522891287 
0.010028192621 0.010447474313 0.010762901122 0.010959989752 0.01102862216 0.010963829454 0.010766250262 0.010442192578 0.010003268382 
0.0094656207815 0.0088488154263 0.0081745105325 0.0074650421245 0.0067420566594 0.0060252928753 0.0053315683345 0.0076691966772 0.0068217668827 
0.0061131659841 0.0055236258059 0.0050324256875 0.004619784449 0.0042679821442 0.0039619611853 0.0036895845304 0.0034416750124 0.0032119220615 
0.0029967108867 0.002794904437 0.0026075927098 0.0024378154304 0.0022902607657 0.002170941997 0.0020868526757 0.0020455988277 0.0020550062755 
0.0021227029808 0.0022556801316 0.0024598395643 0.0027395383576 0.0030971463891 0.0035326458807 0.0040477178925 0.0046288113289 0.0052664887028 
0.005947711647 0.0066560392183 0.0073719711672 0.0080735088117 0.0087369511569 0.0093379162736 0.009852552495 0.010258876644 0.010538148769 
0.010676169039 0.010664368079 0.010500562495 0.01018926714 0.0097414962763 0.0091740434484 0.0085082963041 0.0077687044052 0.006981060764 
0.0061707703818 0.0053612582882 0.0045726235003 0.0070805573056 0.0061925483292 0.0054508887333 0.0048337806167 0.0043183894305 0.0038829571616 
0.0035080554096 0.0031772475079 0.0028773626453 0.0025985263792 0.0023340451297 0.0020802045272 0.0018360158673 0.0016029304654 0.0013845333049 
0.0011862220558 0.0010148731042 0.0008784917084 0.00078584050727 0.00074604063696 0.0007681423935 0.00086066635182 0.0010311191542 0.0012854902674 
0.0016277355084 0.0020592439856 0.0025843209631 0.003190623515 0.0038691712244 0.0046071142487 0.0053876223282 0.0061900724917 0.0069905239172 
0.0077624835094 0.0084779591978 0.0091087764342 0.0096281025353 0.010012087774 0.010241497026 0.010303178076 0.010191200081 0.0099075058288 
0.0094619587869 0.0088717300971 0.0081600537595 0.0073544653266 0.0064847109741 0.0055805518346 0.0046696831187 0.0037759427797 0.0063240653845 
0.0054008875876 0.0046302977585 0.0039885441141 0.0034507223071 0.0029931420367 0.0025947244966 0.0022377308579 0.001908049849 0.0015952098157 
0.0012922271305 0.00099536133987 0.00070382056287 0.00041944392057 0.00014637569799 -0.00010926334375 -0.00033970963932 -0.00053590309107 -0.0006878556877 
-0.00078505119638 -0.000816881501 -0.00077312132765 -0.00064443956802 -0.0004229421947 -0.00010274254654 0.00031942080726 0.00084850872695 0.0014779580928 
0.0021976058015 0.0029953248538 0.003854291387 0.0047530266086 0.0056657660577 0.0065631635463 0.0074133462888 0.0081833165968 0.0088406598078 
0.0093554731718 0.0097023817494 0.0098624624801 0.0098248665719 0.0095879245305 0.0091595469238 0.0085568014824 0.007804648415 0.0069339346137 
0.005978858555 0.0049741932082 0.0039525735505 0.0029421147675 0.005391406015 0.0044389298085 0.0036438387633 0.0029804833067 0.0024219727226 
0.001942792784 0.0015203371221 0.0011356878357 0.00077390261149 0.0004239970604 7.8750891573e-05 -0.0002655790639 -0.00060958664098 -0.00095105422177 
-0.0012852864332 -0.0016054374609 -0.0019028382422 -0.0021673345643 -0.002387648285 -0.0025517726528 -0.0026474099628 -0.0026624563465 -0.0025855338616 
-0.002406561815 -0.0021173411589 -0.0017120705328 -0.0011874955302 -0.00053939341128 0.00021913342369 0.0010774683773 0.0020193274073 0.00302277423 
0.0040604717845 0.0051002834211 0.0061062851985 0.0070402162839 0.0078633517648 0.0085387274793 0.0090335824874 0.009321818878 0.0093862228506 
0.0092201610406 0.0088284777758 0.0082273837836 0.0074432453498 0.0065103397456 0.0054678064837 0.0043561535249 0.0032137358851 0.0020735942928 
0.0042760726977 0.0033004740698 0.0024854060723 0.0018034607491 0.0012259379991 0.00072567810306 0.00027870393753 -0.00013496064824 -0.00053100941815 
-0.00092089917411 -0.0013120783858 -0.0017083054079 -0.0021099980581 -0.0025145825436 -0.0029168289476 -0.0033091735345 -0.0036820363416 -0.0040241467295 
-0.0043228909251 -0.0045646952254 -0.0047354568748 -0.0048210319786 -0.0048077856075 -0.0046832026179 -0.0044365480735 -0.0040595531196 -0.0035471019798 
-0.0028889544088 -0.002096949182 -0.0011799774483 -0.00015326539272 0.00096130565419 0.0021352295806 0.0033338019162 0.0045170233438 0.0056410410225 
0.0066601456306 0.0075292799838 0.0082069356674 0.0086582239787 0.0088578201487 0.0087924154684 0.0084622945811 0.007881706733 0.0070778304915 
0.0060883307031 0.0049577377596 0.0037330850462 0.0024593596714 0.0011753150221 0.0029733876127 0.0019809284719 0.0011503857658 0.00045284029157 
-0.00014197760002 -0.0006626748243 -0.0011344558157 -0.0015782655953 -0.0020105052568 -0.002443093462 -0.0028837183048 -0.0033361772344 -0.0038007420473 
-0.0042745153649 -0.0047517657364 -0.0052242420901 -0.0056814766955 -0.0061110906138 -0.0064991181775 -0.0068303679172 -0.0070888366715 -0.0072581916214 
-0.007322331691 -0.0072660361535 -0.007075708124 -0.0067402367454 -0.0062520848393 -0.0055946230909 -0.0047777027888 -0.0038073239903 -0.002696882446 
-0.0014675147991 -0.00014830343215 0.001223904119 0.0026052076656 0.0039460059879 0.0051930505516 0.0062921977939 0.0071917632125 0.0078462643774 
0.0082202145259 0.0082915177381 0.0080539541554 0.0075182652464 0.00671148063 0.0056743698058 0.0044572164108 0.0031144231785 0.0016986680816 
0.00025537108079 0.0014805090127 0.00047741886285 -0.00036411250112 -0.0010742135254 -0.0016844730864 -0.002224759348 -0.0027213807722 -0.0031961795539 
-0.0036662314365 -0.0041439129103 -0.0046371689394 -0.0051498699409 -0.0056821893323 -0.006230964899 -0.0067900294948 -0.0073505113665 -0.0079011140146 
-0.0084283916878 -0.0089170404719 -0.0093502266389 -0.009709973714 -0.0099776279932 -0.010134419281 -0.010162130216 -0.010043884642 -0.0097650621645 
-0.0093143258489 -0.0086735947624 -0.007844208638 -0.0068293775749 -0.0056399996985 -0.0042956412424 -0.0028251613017 -0.0012668861147 0.00033180999801 
0.0019156618948 0.0034235255098 0.0047912979142 0.0059556966349 0.0068587080097 0.0074523456249 0.0077031902188 0.0075960545919 0.0071360844601 
0.0063487176308 0.005277200384 0.0039777702061 0.0025130639191 0.00094466127383 -0.00067420435114 -0.00020345170599 -0.0012110289854 -0.0020590811332 
-0.0027786330365 -0.003402341007 -0.0039611471326 -0.0044823363669 -0.0049885716888 -0.0054975704496 -0.0060221710485 -0.0065706111669 -0.0071468966795 
-0.0077511862089 -0.0083801507803 -0.009027292247 -0.0096832206483 -0.010335901798 -0.010970893875 -0.011571596427 -0.012119537278 -0.012594722851 
-0.012976076035 -0.013241983095 -0.013370967444 -0.013342502777 -0.01313797051 -0.012741766913 -0.012135719582 -0.011309407164 -0.010262898996 
-0.0090034913468 -0.0075481042074 -0.0059243317339 -0.0041710424793 -0.002338357258 -0.00048681021155 0.0013144901783 0.0029908303077 0.0044660161761 
0.0056675164859 0.0065322729161 0.0070125859466 0.0070812682263 0.0067351382705 0.0059959851656 0.0049084250974 0.0035345823772 0.0019461554678 
0.00021498020487 -0.0015965344977 -0.0020772923625 -0.0030834193967 -0.003933650076 -0.0046595704255 -0.0052946222025 -0.0058706069529 -0.0064156417384 
-0.0069531329608 -0.0075014229057 -0.0080738470355 -0.0086790122723 -0.0093211669365 -0.01000058172 -0.010713897735 -0.011454423716 -0.01221238256 
-0.012975119803 -0.01372729504 -0.014451082336 -0.015126408084 -0.015731255285 -0.016242062517 -0.01663424404 -0.016882853901 -0.016963408709 
-0.016852860676 -0.016530634677 -0.015979329654 -0.0151751176 -0.014113743102 -0.01279767471 -0.011239941183 -0.0094656123795 -0.0075128859771 
-0.0054335681635 -0.0032926944151 -0.0011670274933 0.00085779437117 0.0026915885807 0.0042453933775 0.0054383657118 0.0062051909854 0.006503054834 
0.006316980887 0.0056622937876 0.0045832300504 0.0031473232088 0.0014360329143 -0.0004670802612 -0.0024888388935 -0.004137707546 -0.0051368933519 
-0.0059852680693 -0.0067145838278 -0.0073587349959 -0.0079501405167 -0.0085176054168 -0.009085227786 -0.0096720016035 -0.010291846466 -0.010953867349 
-0.011662709251 -0.012418921588 -0.013219284916 -0.014057079954 -0.014922298273 -0.015801807655 -0.016679494246 -0.017536409301 -0.018350951207 
-0.019099114906 -0.019754841137 -0.020290497576 -0.020677522779 -0.020887261987 -0.020892024425 -0.02066641433 -0.020189132847 -0.01942951864 
-0.018374115538 -0.017019337592 -0.015373002633 -0.013456234126 -0.01130509125 -0.0089716608768 -0.0065242934997 -0.0040466325491 -0.0016350960949 
0.00060545337818 0.0025679434309 0.0041510350146 0.0052681800437 0.0058567356405 0.0058856581614 0.005360086749 0.0043212957494 0.0028411555901 
0.0010113269096 -0.0010713790506 -0.003321187966 -0.0063794370701 -0.0073669394051 -0.0082099092334 -0.0089397940005 -0.0095905657907 -0.010195014589 
-0.010782518106 -0.011377865478 -0.01200079015 -0.01266594395 -0.013383113768 -0.014157542257 -0.014990262841 -0.015878397072 -0.016815390688 
-0.017791185577 -0.018792339758 -0.019802117713 -0.020800579767 -0.021764703033 -0.022668568714 -0.023483651913 -0.024179250934 -0.02472309355 
-0.025082158403 -0.025223754562 -0.025116929522 -0.024734401808 -0.024045166406 -0.023020223533 -0.021649029353 -0.019932900568 -0.01788750111 
-0.015545075557 -0.012956259508 -0.010191092885 -0.0073387972705 -0.0045058525651 -0.0018119468595 0.00061647895377 0.0026550719052 0.0041923040259 