# vtk DataFile Version 4.1
vtk output
ASCII
DATASET STRUCTURED_GRID
DIMENSIONS 51 51 1
POINTS 2601 float
0 0 0 0.02 0 0 0.04 0 0 
0.06 0 0 0.08 0 0 0.1 0 0 
0.12 0 0 0.14 0 0 0.16 0 0 
0.18 0 0 0.2 0 0 0.22 0 0 
0.24 0 0 0.26 0 0 0.28 0 0 
0.3 0 0 0.32 0 0 0.34 0 0 
0.36 0 0 0.38 0 0 0.4 0 0 
0.42 0 0 0.44 0 0 0.46 0 0 
0.48 0 0 0.5 0 0 0.52 0 0 
0.54 0 0 0.56 0 0 0.58 0 0 
0.6 0 0 0.62 0 0 0.64 0 0 
0.66 0 0 0.68 0 0 0.7 0 0 
0.72 0 0 0.74 0 0 0.76 0 0 
0.78 0 0 0.8 0 0 0.82 0 0 
0.84 0 0 0.86 0 0 0.88 0 0 
0.9 0 0 0.92 0 0 0.94 0 0 
0.96 0 0 0.98 0 0 1 0 0 
0 0.02 0 0.02 0.02 0 0.04 0.02 0 
0.06 0.02 0 0.08 0.02 0 0.1 0.02 0 
0.12 0.02 0 0.14 0.02 0 0.16 0.02 0 
0.18 0.02 0 0.2 0.02 0 0.22 0.02 0 
0.24 0.02 0 0.26 0.02 0 0.28 0.02 0 
0.3 0.02 0 0.32 0.02 0 0.34 0.02 0 
0.36 0.02 0 0.38 0.02 0 0.4 0.02 0 
0.42 0.02 0 0.44 0.02 0 0.46 0.02 0 
0.48 0.02 0 0.5 0.02 0 0.52 0.02 0 
0.54 0.02 0 0.56 0.02 0 0.58 0.02 0 
0.6 0.02 0 0.62 0.02 0 0.64 0.02 0 
0.66 0.02 0 0.68 0.02 0 0.7 0.02 0 
0.72 0.02 0 0.74 0.02 0 0.76 0.02 0 
0.78 0.02 0 0.8 0.02 0 0.82 0.02 0 
0.84 0.02 0 0.86 0.02 0 0.88 0.02 0 
0.9 0.02 0 0.92 0.02 0 0.94 0.02 0 
0.96 0.02 0 0.98 0.02 0 1 0.02 0 
0 0.04 0 0.02 0.04 0 0.04 0.04 0 
0.06 0.04 0 0.08 0.04 0 0.1 0.04 0 
0.12 0.04 0 0.14 0.04 0 0.16 0.04 0 
0.18 0.04 0 0.2 0.04 0 0.22 0.04 0 
0.24 0.04 0 0.26 0.04 0 0.28 0.04 0 
0.3 0.04 0 0.32 0.04 0 0.34 0.04 0 
0.36 0.04 0 0.38 0.04 0 0.4 0.04 0 
0.42 0.04 0 0.44 0.04 0 0.46 0.04 0 
0.48 0.04 0 0.5 0.04 0 0.52 0.04 0 
0.54 0.04 0 0.56 0.04 0 0.58 0.04 0 
0.6 0.04 0 0.62 0.04 0 0.64 0.04 0 
0.66 0.04 0 0.68 0.04 0 0.7 0.04 0 
0.72 0.04 0 0.74 0.04 0 0.76 0.04 0 
0.78 0.04 0 0.8 0.04 0 0.82 0.04 0 
0.84 0.04 0 0.86 0.04 0 0.88 0.04 0 
0.9 0.04 0 0.92 0.04 0 0.94 0.04 0 
0.96 0.04 0 0.98 0.04 0 1 0.04 0 
0 0.06 0 0.02 0.06 0 0.04 0.06 0 
0.06 0.06 0 0.08 0.06 0 0.1 0.06 0 
0.12 0.06 0 0.14 0.06 0 0.16 0.06 0 
0.18 0.06 0 0.2 0.06 0 0.22 0.06 0 
0.24 0.06 0 0.26 0.06 0 0.28 0.06 0 
0.3 0.06 0 0.32 0.06 0 0.34 0.06 0 
0.36 0.06 0 0.38 0.06 0 0.4 0.06 0 
0.42 0.06 0 0.44 0.06 0 0.46 0.06 0 
0.48 0.06 0 0.5 0.06 0 0.52 0.06 0 
0.54 0.06 0 0.56 0.06 0 0.58 0.06 0 
0.6 0.06 0 0.62 0.06 0 0.64 0.06 0 
0.66 0.06 0 0.68 0.06 0 0.7 0.06 0 
0.72 0.06 0 0.74 0.06 0 0.76 0.06 0 
0.78 0.06 0 0.8 0.06 0 0.82 0.06 0 
0.84 0.06 0 0.86 0.06 0 0.88 0.06 0 
0.9 0.06 0 0.92 0.06 0 0.94 0.06 0 
0.96 0.06 0 0.98 0.06 0 1 0.06 0 
0 0.08 0 0.02 0.08 0 0.04 0.08 0 
0.06 0.08 0 0.08 0.08 0 0.1 0.08 0 
0.12 0.08 0 0.14 0.08 0 0.16 0.08 0 
0.18 0.08 0 0.2 0.08 0 0.22 0.08 0 
0.24 0.08 0 0.26 0.08 0 0.28 0.08 0 
0.3 0.08 0 0.32 0.08 0 0.34 0.08 0 
0.36 0.08 0 0.38 0.08 0 0.4 0.08 0 
0.42 0.08 0 0.44 0.08 0 0.46 0.08 0 
0.48 0.08 0 0.5 0.08 0 0.52 0.08 0 
0.54 0.08 0 0.56 0.08 0 0.58 0.08 0 
0.6 0.08 0 0.62 0.08 0 0.64 0.08 0 
0.66 0.08 0 0.68 0.08 0 0.7 0.08 0 
0.72 0.08 0 0.74 0.08 0 0.76 0.08 0 
0.78 0.08 0 0.8 0.08 0 0.82 0.08 0 
0.84 0.08 0 0.86 0.08 0 0.88 0.08 0 
0.9 0.08 0 0.92 0.08 0 0.94 0.08 0 
0.96 0.08 0 0.98 0.08 0 1 0.08 0 
0 0.1 0 0.02 0.1 0 0.04 0.1 0 
0.06 0.1 0 0.08 0.1 0 0.1 0.1 0 
0.12 0.1 0 0.14 0.1 0 0.16 0.1 0 
0.18 0.1 0 0.2 0.1 0 0.22 0.1 0 
0.24 0.1 0 0.26 0.1 0 0.28 0.1 0 
0.3 0.1 0 0.32 0.1 0 0.34 0.1 0 
0.36 0.1 0 0.38 0.1 0 0.4 0.1 0 
0.42 0.1 0 0.44 0.1 0 0.46 0.1 0 
0.48 0.1 0 0.5 0.1 0 0.52 0.1 0 
0.54 0.1 0 0.56 0.1 0 0.58 0.1 0 
0.6 0.1 0 0.62 0.1 0 0.64 0.1 0 
0.66 0.1 0 0.68 0.1 0 0.7 0.1 0 
0.72 0.1 0 0.74 0.1 0 0.76 0.1 0 
0.78 0.1 0 0.8 0.1 0 0.82 0.1 0 
0.84 0.1 0 0.86 0.1 0 0.88 0.1 0 
0.9 0.1 0 0.92 0.1 0 0.94 0.1 0 
0.96 0.1 0 0.98 0.1 0 1 0.1 0 
0 0.12 0 0.02 0.12 0 0.04 0.12 0 
0.06 0.12 0 0.08 0.12 0 0.1 0.12 0 
0.12 0.12 0 0.14 0.12 0 0.16 0.12 0 
0.18 0.12 0 0.2 0.12 0 0.22 0.12 0 
0.24 0.12 0 0.26 0.12 0 0.28 0.12 0 
0.3 0.12 0 0.32 0.12 0 0.34 0.12 0 
0.36 0.12 0 0.38 0.12 0 0.4 0.12 0 
0.42 0.12 0 0.44 0.12 0 0.46 0.12 0 
0.48 0.12 0 0.5 0.12 0 0.52 0.12 0 
0.54 0.12 0 0.56 0.12 0 0.58 0.12 0 
0.6 0.12 0 0.62 0.12 0 0.64 0.12 0 
0.66 0.12 0 0.68 0.12 0 0.7 0.12 0 
0.72 0.12 0 0.74 0.12 0 0.76 0.12 0 
0.78 0.12 0 0.8 0.12 0 0.82 0.12 0 
0.84 0.12 0 0.86 0.12 0 0.88 0.12 0 
0.9 0.12 0 0.92 0.12 0 0.94 0.12 0 
0.96 0.12 0 0.98 0.12 0 1 0.12 0 
0 0.14 0 0.02 0.14 0 0.04 0.14 0 
0.06 0.14 0 0.08 0.14 0 0.1 0.14 0 
0.12 0.14 0 0.14 0.14 0 0.16 0.14 0 
0.18 0.14 0 0.2 0.14 0 0.22 0.14 0 
0.24 0.14 0 0.26 0.14 0 0.28 0.14 0 
0.3 0.14 0 0.32 0.14 0 0.34 0.14 0 
0.36 0.14 0 0.38 0.14 0 0.4 0.14 0 
0.42 0.14 0 0.44 0.14 0 0.46 0.14 0 
0.48 0.14 0 0.5 0.14 0 0.52 0.14 0 
0.54 0.14 0 0.56 0.14 0 0.58 0.14 0 
0.6 0.14 0 0.62 0.14 0 0.64 0.14 0 
0.66 0.14 0 0.68 0.14 0 0.7 0.14 0 
0.72 0.14 0 0.74 0.14 0 0.76 0.14 0 
0.78 0.14 0 0.8 0.14 0 0.82 0.14 0 
0.84 0.14 0 0.86 0.14 0 0.88 0.14 0 
0.9 0.14 0 0.92 0.14 0 0.94 0.14 0 
0.96 0.14 0 0.98 0.14 0 1 0.14 0 
0 0.16 0 0.02 0.16 0 0.04 0.16 0 
0.06 0.16 0 0.08 0.16 0 0.1 0.16 0 
0.12 0.16 0 0.14 0.16 0 0.16 0.16 0 
0.18 0.16 0 0.2 0.16 0 0.22 0.16 0 
0.24 0.16 0 0.26 0.16 0 0.28 0.16 0 
0.3 0.16 0 0.32 0.16 0 0.34 0.16 0 
0.36 0.16 0 0.38 0.16 0 0.4 0.16 0 
0.42 0.16 0 0.44 0.16 0 0.46 0.16 0 
0.48 0.16 0 0.5 0.16 0 0.52 0.16 0 
0.54 0.16 0 0.56 0.16 0 0.58 0.16 0 
0.6 0.16 0 0.62 0.16 0 0.64 0.16 0 
0.66 0.16 0 0.68 0.16 0 0.7 0.16 0 
0.72 0.16 0 0.74 0.16 0 0.76 0.16 0 
0.78 0.16 0 0.8 0.16 0 0.82 0.16 0 
0.84 0.16 0 0.86 0.16 0 0.88 0.16 0 
0.9 0.16 0 0.92 0.16 0 0.94 0.16 0 
0.96 0.16 0 0.98 0.16 0 1 0.16 0 
0 0.18 0 0.02 0.18 0 0.04 0.18 0 
0.06 0.18 0 0.08 0.18 0 0.1 0.18 0 
0.12 0.18 0 0.14 0.18 0 0.16 0.18 0 
0.18 0.18 0 0.2 0.18 0 0.22 0.18 0 
0.24 0.18 0 0.26 0.18 0 0.28 0.18 0 
0.3 0.18 0 0.32 0.18 0 0.34 0.18 0 
0.36 0.18 0 0.38 0.18 0 0.4 0.18 0 
0.42 0.18 0 0.44 0.18 0 0.46 0.18 0 
0.48 0.18 0 0.5 0.18 0 0.52 0.18 0 
0.54 0.18 0 0.56 0.18 0 0.58 0.18 0 
0.6 0.18 0 0.62 0.18 0 0.64 0.18 0 
0.66 0.18 0 0.68 0.18 0 0.7 0.18 0 
0.72 0.18 0 0.74 0.18 0 0.76 0.18 0 
0.78 0.18 0 0.8 0.18 0 0.82 0.18 0 
0.84 0.18 0 0.86 0.18 0 0.88 0.18 0 
0.9 0.18 0 0.92 0.18 0 0.94 0.18 0 
0.96 0.18 0 0.98 0.18 0 1 0.18 0 
0 0.2 0 0.02 0.2 0 0.04 0.2 0 
0.06 0.2 0 0.08 0.2 0 0.1 0.2 0 
0.12 0.2 0 0.14 0.2 0 0.16 0.2 0 
0.18 0.2 0 0.2 0.2 0 0.22 0.2 0 
0.24 0.2 0 0.26 0.2 0 0.28 0.2 0 
0.3 0.2 0 0.32 0.2 0 0.34 0.2 0 
0.36 0.2 0 0.38 0.2 0 0.4 0.2 0 
0.42 0.2 0 0.44 0.2 0 0.46 0.2 0 
0.48 0.2 0 0.5 0.2 0 0.52 0.2 0 
0.54 0.2 0 0.56 0.2 0 0.58 0.2 0 
0.6 0.2 0 0.62 0.2 0 0.64 0.2 0 
0.66 0.2 0 0.68 0.2 0 0.7 0.2 0 
0.72 0.2 0 0.74 0.2 0 0.76 0.2 0 
0.78 0.2 0 0.8 0.2 0 0.82 0.2 0 
0.84 0.2 0 0.86 0.2 0 0.88 0.2 0 
0.9 0.2 0 0.92 0.2 0 0.94 0.2 0 
0.96 0.2 0 0.98 0.2 0 1 0.2 0 
0 0.22 0 0.02 0.22 0 0.04 0.22 0 
0.06 0.22 0 0.08 0.22 0 0.1 0.22 0 
0.12 0.22 0 0.14 0.22 0 0.16 0.22 0 
0.18 0.22 0 0.2 0.22 0 0.22 0.22 0 
0.24 0.22 0 0.26 0.22 0 0.28 0.22 0 
0.3 0.22 0 0.32 0.22 0 0.34 0.22 0 
0.36 0.22 0 0.38 0.22 0 0.4 0.22 0 
0.42 0.22 0 0.44 0.22 0 0.46 0.22 0 
0.48 0.22 0 0.5 0.22 0 0.52 0.22 0 
0.54 0.22 0 0.56 0.22 0 0.58 0.22 0 
0.6 0.22 0 0.62 0.22 0 0.64 0.22 0 
0.66 0.22 0 0.68 0.22 0 0.7 0.22 0 
0.72 0.22 0 0.74 0.22 0 0.76 0.22 0 
0.78 0.22 0 0.8 0.22 0 0.82 0.22 0 
0.84 0.22 0 0.86 0.22 0 0.88 0.22 0 
0.9 0.22 0 0.92 0.22 0 0.94 0.22 0 
0.96 0.22 0 0.98 0.22 0 1 0.22 0 
0 0.24 0 0.02 0.24 0 0.04 0.24 0 
0.06 0.24 0 0.08 0.24 0 0.1 0.24 0 
0.12 0.24 0 0.14 0.24 0 0.16 0.24 0 
0.18 0.24 0 0.2 0.24 0 0.22 0.24 0 
0.24 0.24 0 0.26 0.24 0 0.28 0.24 0 
0.3 0.24 0 0.32 0.24 0 0.34 0.24 0 
0.36 0.24 0 0.38 0.24 0 0.4 0.24 0 
0.42 0.24 0 0.44 0.24 0 0.46 0.24 0 
0.48 0.24 0 0.5 0.24 0 0.52 0.24 0 
0.54 0.24 0 0.56 0.24 0 0.58 0.24 0 
0.6 0.24 0 0.62 0.24 0 0.64 0.24 0 
0.66 0.24 0 0.68 0.24 0 0.7 0.24 0 
0.72 0.24 0 0.74 0.24 0 0.76 0.24 0 
0.78 0.24 0 0.8 0.24 0 0.82 0.24 0 
0.84 0.24 0 0.86 0.24 0 0.88 0.24 0 
0.9 0.24 0 0.92 0.24 0 0.94 0.24 0 
0.96 0.24 0 0.98 0.24 0 1 0.24 0 
0 0.26 0 0.02 0.26 0 0.04 0.26 0 
0.06 0.26 0 0.08 0.26 0 0.1 0.26 0 
0.12 0.26 0 0.14 0.26 0 0.16 0.26 0 
0.18 0.26 0 0.2 0.26 0 0.22 0.26 0 
0.24 0.26 0 0.26 0.26 0 0.28 0.26 0 
0.3 0.26 0 0.32 0.26 0 0.34 0.26 0 
0.36 0.26 0 0.38 0.26 0 0.4 0.26 0 
0.42 0.26 0 0.44 0.26 0 0.46 0.26 0 
0.48 0.26 0 0.5 0.26 0 0.52 0.26 0 
0.54 0.26 0 0.56 0.26 0 0.58 0.26 0 
0.6 0.26 0 0.62 0.26 0 0.64 0.26 0 
0.66 0.26 0 0.68 0.26 0 0.7 0.26 0 
0.72 0.26 0 0.74 0.26 0 0.76 0.26 0 
0.78 0.26 0 0.8 0.26 0 0.82 0.26 0 
0.84 0.26 0 0.86 0.26 0 0.88 0.26 0 
0.9 0.26 0 0.92 0.26 0 0.94 0.26 0 
0.96 0.26 0 0.98 0.26 0 1 0.26 0 
0 0.28 0 0.02 0.28 0 0.04 0.28 0 
0.06 0.28 0 0.08 0.28 0 0.1 0.28 0 
0.12 0.28 0 0.14 0.28 0 0.16 0.28 0 
0.18 0.28 0 0.2 0.28 0 0.22 0.28 0 
0.24 0.28 0 0.26 0.28 0 0.28 0.28 0 
0.3 0.28 0 0.32 0.28 0 0.34 0.28 0 
0.36 0.28 0 0.38 0.28 0 0.4 0.28 0 
0.42 0.28 0 0.44 0.28 0 0.46 0.28 0 
0.48 0.28 0 0.5 0.28 0 0.52 0.28 0 
0.54 0.28 0 0.56 0.28 0 0.58 0.28 0 
0.6 0.28 0 0.62 0.28 0 0.64 0.28 0 
0.66 0.28 0 0.68 0.28 0 0.7 0.28 0 
0.72 0.28 0 0.74 0.28 0 0.76 0.28 0 
0.78 0.28 0 0.8 0.28 0 0.82 0.28 0 
0.84 0.28 0 0.86 0.28 0 0.88 0.28 0 
0.9 0.28 0 0.92 0.28 0 0.94 0.28 0 
0.96 0.28 0 0.98 0.28 0 1 0.28 0 
0 0.3 0 0.02 0.3 0 0.04 0.3 0 
0.06 0.3 0 0.08 0.3 0 0.1 0.3 0 
0.12 0.3 0 0.14 0.3 0 0.16 0.3 0 
0.18 0.3 0 0.2 0.3 0 0.22 0.3 0 
0.24 0.3 0 0.26 0.3 0 0.28 0.3 0 
0.3 0.3 0 0.32 0.3 0 0.34 0.3 0 
0.36 0.3 0 0.38 0.3 0 0.4 0.3 0 
0.42 0.3 0 0.44 0.3 0 0.46 0.3 0 
0.48 0.3 0 0.5 0.3 0 0.52 0.3 0 
0.54 0.3 0 0.56 0.3 0 0.58 0.3 0 
0.6 0.3 0 0.62 0.3 0 0.64 0.3 0 
0.66 0.3 0 0.68 0.3 0 0.7 0.3 0 
0.72 0.3 0 0.74 0.3 0 0.76 0.3 0 
0.78 0.3 0 0.8 0.3 0 0.82 0.3 0 
0.84 0.3 0 0.86 0.3 0 0.88 0.3 0 
0.9 0.3 0 0.92 0.3 0 0.94 0.3 0 
0.96 0.3 0 0.98 0.3 0 1 0.3 0 
0 0.32 0 0.02 0.32 0 0.04 0.32 0 
0.06 0.32 0 0.08 0.32 0 0.1 0.32 0 
0.12 0.32 0 0.14 0.32 0 0.16 0.32 0 
0.18 0.32 0 0.2 0.32 0 0.22 0.32 0 
0.24 0.32 0 0.26 0.32 0 0.28 0.32 0 
0.3 0.32 0 0.32 0.32 0 0.34 0.32 0 
0.36 0.32 0 0.38 0.32 0 0.4 0.32 0 
0.42 0.32 0 0.44 0.32 0 0.46 0.32 0 
0.48 0.32 0 0.5 0.32 0 0.52 0.32 0 
0.54 0.32 0 0.56 0.32 0 0.58 0.32 0 
[...]
CELL_DATA 2500
FIELD FieldData 1
pressure 1 2500 double
0.0061851416359 0.0061201381392 0.0059292375065 0.0056519501341 0.0053302032018 0.0049986061564 0.0046830028136 0.0044014783779 0.0041660161757 
0.0039841677975 0.0038605047323 0.0037977492592 0.0037975596784 0.0038610053907 0.0039887983231 0.0041813461332 0.0044386800042 0.0047603050327 
0.005145020824 0.0055907489475 0.0060943807375 0.0066516386758 0.0072569414408 0.0079032737543 0.0085820717116 0.0092831313392 0.0099941796994 
0.010702027865 0.011392758884 0.012051846301 0.012664583735 0.013216614768 0.013694527837 0.014086482838 0.014382834632 0.014576716653 
0.014664547942 0.014646430901 0.014526414855 0.014312611809 0.01401716477 0.013656084349 0.013248983035 0.012818742751 0.012391148152 
0.011994387129 0.011658287636 0.011412391306 0.01128078628 0.011268378889 0.0062531691743 0.0061851861197 0.0060204476792 0.0057903611596 
0.0055251599754 0.0052507081977 0.0049873214264 0.0047500736667 0.0045497419863 0.0043938678902 0.0042876832164 0.0042348108424 0.0042377472444 
0.0042981756413 0.0044171550406 0.0045952108219 0.0048323444384 0.0051279851107 0.0054809072225 0.0058891257474 0.0063497699212 0.0068589364442 
0.0074115363359 0.0080011605522 0.0086199911297 0.0092587836771 0.0099059723081 0.01054958404 0.011177046658 0.011775272251 0.012331073844 
0.012831650485 0.013265122916 0.013621093975 0.013891202822 0.014069639098 0.014153583627 0.014143545996 0.01404357616 0.013861336667 
0.013608033492 0.013298214864 0.012949455552 0.012581943083 0.012217963398 0.011881231543 0.011595872212 0.011384846915 0.011267321659 
0.011255961812 0.006445392542 0.0063452773828 0.0061785562022 0.0059676343473 0.0057333976533 0.0054941926256 0.0052652314619 0.0050586133294 
0.0048836820692 0.0047474865166 0.0046552185255 0.004610590333 0.0046161588777 0.004673605656 0.0047839595514 0.0049477411987 0.0051650219662 
0.0054354093281 0.0057579741826 0.0061311299298 0.0065524738803 0.0070186127223 0.0075250032907 0.0080658369934 0.0086339866289 0.0092210291585 
0.0098158634197 0.010407516305 0.010984446401 0.011534629469 0.012045954922 0.012506682008 0.012905941434 0.013234258925 0.01348407077 
0.013650198336 0.013730248977 0.013724914056 0.013638140892 0.013477164218 0.013252393339 0.012977161651 0.012667352534 0.012340916272 
0.012017283368 0.011716659138 0.011459157309 0.011263808145 0.011147665405 0.01112616499 0.006727421459 0.0065746590745 0.006384504313 
0.0061703749706 0.0059457352396 0.0057231795798 0.0055138131594 0.0053269461887 0.0051700412782 0.0050488329546 0.0049675487095 0.0049291866772 
0.0049358174304 0.0049888674112 0.005089334247 0.0052379022385 0.0054349592209 0.0056805359291 0.005974188276 0.006314838164 0.0067005930761 
0.0071285727913 0.0075947704161 0.0080939630519 0.0086196771263 0.0091642133126 0.0097168524984 0.010267409638 0.01080509288 0.011318603872 
0.011796517567 0.012227724168 0.012601917047 0.012910102251 0.013145099003 0.013301997793 0.013378542701 0.013375407201 0.013296338551 
0.013148154828 0.012940589845 0.012685992597 0.012398897304 0.012095485618 0.011792963718 0.011508876709 0.011260393166 0.011063650639 
0.010933373217 0.01088320812 0.007062026386 0.0068441928718 0.0066148223891 0.0063807729041 0.0061501170272 0.0059309806601 0.0057307756793 
0.0055557591171 0.0054108950644 0.0052999365429 0.0052256331107 0.0051899940145 0.0051945523844 0.0052405769494 0.0053291900856 0.0054613839454 
0.0056379569734 0.0058593991601 0.0061257438898 0.006436398432 0.0067899702332 0.0071841100316 0.0076153869466 0.0080792007205 0.0085697329855 
0.0090799456089 0.0095994677501 0.010118671922 0.010627263602 0.011114369952 0.011568912044 0.011980044167 0.012337642023 0.012632814096 
0.012858404742 0.013009454345 0.013083580989 0.013081250121 0.013005904581 0.012863937131 0.012664500011 0.012419159507 0.012141415982 
0.011846120045 0.011548822998 0.011265105397 0.011009936266 0.010797132286 0.010639003614 0.010546206819 0.0074146448565 0.0071248356231 
0.0068464911597 0.0065822126108 0.00633587684 0.0061115793492 0.0059129888041 0.0057430655275 0.0056040608099 0.0054976664269 0.0054252117122 
0.0053878543189 0.0053867313739 0.0054230410774 0.0054980411571 0.0056129787353 0.0057689800832 0.0059669187929 0.0062072661829 0.0064899261761 
0.0068140651702 0.0071779512623 0.0075788128074 0.0080127220911 0.0084745121342 0.0089577410051 0.009452365829 0.0099490715606 0.010437845754 
0.010907988658 0.011348483516 0.011748439674 0.012097589717 0.012386814309 0.012608662179 0.012757828428 0.012831552191 0.012829896297 
0.012755877809 0.012615428966 0.012417182109 0.012172088029 0.011892892905 0.011593512984 0.011288356483 0.010991647316 0.010716804356 
0.010475918233 0.010279329329 0.010135190178 0.0077551748812 0.007391214405 0.0070597606971 0.0067601430374 0.0064924115003 0.0062567690103 
0.0060532785253 0.0058818416495 0.0057423184674 0.0056346668012 0.0055590490614 0.0055159029615 0.0055059735639 0.0055302955193 0.0055901251398 
0.0056868393868 0.0058218184978 0.005996313181 0.0062112883052 0.0064672421086 0.0067640117752 0.0071005804864 0.0074748981007 0.0078837261966 
0.0083225211196 0.0087853710204 0.0092625729462 0.00974488727 0.01022241788 0.010684438371 0.011119761249 0.011517187924 0.011866021155 
0.012156613205 0.01238091557 0.012532990361 0.012609440189 0.012609714685 0.012536258239 0.01239447502 0.012192503143 0.011940808134 
0.01165162486 0.011338294107 0.011014551813 0.010693832481 0.01038864015 0.010110015013 0.0098670723945 0.0096664999669 0.0080589395877 
0.0076222954056 0.0072371799538 0.0068998246174 0.0066067181182 0.0063545840044 0.0061404212039 0.005961632461 0.0058161404857 0.0057024431218 
0.0056196248593 0.0055673527262 0.0055458567435 0.0055558800227 0.0055985952629 0.0056754972301 0.0057882753053 0.0059386579842 0.0061282216252 
0.006358168674 0.0066290915024 0.0069407394548 0.0072918028322 0.0076797262398 0.0081005653583 0.0085489007865 0.0090154452195 0.0094908192476 
0.0099651270285 0.01042746115 0.010866269893 0.011269816365 0.011626711753 0.011926495427 0.012160225863 0.012321039065 0.012404626924 
0.012409588644 0.012337614628 0.012193474295 0.011984796549 0.01172165244 0.011415971713 0.011080844882 0.010729775912 0.01037595357 
0.010031598088 0.0097074102543 0.0094121004969 0.0091519075083 0.0083058057339 0.0077995793461 0.0073615418893 0.0069850708749 0.006663626062 
0.0063910852684 0.0061619720909 0.0059716138245 0.0058162099754 0.0056928390436 0.0055994524054 0.0055348723874 0.0054987741749 0.005491628224 
0.0055146004481 0.0055694188934 0.0056582085429 0.005783288614 0.0059469325703 0.00615110316 0.00639718052 0.0066856988045 0.0070161025194 
0.0073865334091 0.0077936603224 0.0082325642859 0.0086945246309 0.0091698255944 0.0096484957496 0.010119328093 0.010570244334 0.010988764351 
0.011362563867 0.011680092901 0.011931217478 0.01210783824 0.012204434115 0.012218478637 0.012150681992 0.01200502402 0.011788561785 
0.011511018563 0.011184186456 0.010821197933 0.010435737526 0.010041268948 0.0096503409639 0.0092740055421 0.0089213356368 0.0085989739168 
0.0084780471917 0.0079054029865 0.0074155255059 0.006999427451 0.0066480754834 0.0063529444305 0.0061063593377 0.0059016827497 0.0057333976572 
0.0055971485546 0.0054897775852 0.0054093448613 0.0053551009873 0.0053273969702 0.0053275414798 0.0053576202927 0.0054202821928 0.005518490543 
0.0056552460468 0.0058332937617 0.0060548281974 0.0063212064071 0.0066326770998 0.0069881361262 0.0073849212661 0.0078186599257 0.0082814180196 
0.008762962099 0.0092532048573 0.0097405558411 0.01021227954 0.010654973149 0.01105514883 0.011399893966 0.011677571401 0.011878511102 
0.011995637231 0.012024972044 0.011965961947 0.011821582518 0.011598198457 0.011305179758 0.010954304051 0.010559001894 0.010133521373 
0.0096920950399 0.009248181862 0.0088138282182 0.0083991482653 0.0080118736734 0.0085588365342 0.007922834683 0.0073828445381 0.0069278573603 
0.0065465477492 0.0062280736933 0.0059625693703 0.0057414282157 0.0055574631791 0.0054050091359 0.005279985029 0.0051798959352 0.005103757158 
0.0050519482762 0.0050260207704 0.0050284759734 0.0050625163475 0.0051317697846 0.0052399919646 0.0053907556644 0.0055871349567 0.0058313904078 
0.0061246633427 0.0064666918436 0.0068555642504 0.0072875265567 0.0077557164753 0.0082492281801 0.0087578599011 0.0092695961572 0.0097709512383 
0.010247448794 0.01068422506 0.011066731513 0.011381499858 0.011616919534 0.011763967792 0.011816826893 0.011773324374 0.011635142295 
0.011407760388 0.011100125137 0.010724068709 0.010293533109 0.0098236794751 0.0093299737396 0.0088273329289 0.0083293900917 0.0078478939465 
0.0073922113565 0.0085321932273 0.007836409601 0.0072490247129 0.0067569778097 0.0063465675071 0.0060045759938 0.0057189563162 0.0054792361929 
0.0052767477518 0.0051047504934 0.0049584662517 0.0048350237758 0.0047333218512 0.0046538368475 0.0045983998895 0.0045699533252 0.0045722842693 
0.0046097331208 0.0046868798568 0.0048082131333 0.0049777869386 0.005198870773 0.0054736037845 0.0058026683069 0.0061850015472 0.0066175668186 
0.0070949403958 0.0076054306285 0.0081387771408 0.0086825500111 0.0092224643893 0.0097428520308 0.010227278574 0.010659286352 0.011023228376 
0.01130514382 0.011493611665 0.011580509785 0.011561604464 0.011436902388 0.011210714918 0.010891412451 0.010490881828 0.010023736624 
0.009506361634 0.0089558910306 0.0083892186699 0.007822116801 0.0072684996956 0.0067398217329 0.0083835462092 0.0076323526605 0.0070009915733 
0.0064741551399 0.0060356921313 0.0056700522243 0.005363149364 0.0051028506532 0.0048792283487 0.0046846577161 0.0045137984625 0.004363482736 
0.0042325374688 0.0041215695663 0.0040327299975 0.0039694574085 0.003936196216 0.0039380874008 0.0039806341098 0.0040693453996 0.004209362095 
0.0044050716603 0.0046597237314 0.0049750620646 0.0053509917749 0.0057853035947 0.0062745500655 0.0068061273001 0.0073698597355 0.007952974971 
0.0085403900817 0.0091151654907 0.0096591258677 0.010153636761 0.01058050837 0.010922978989 0.011166712639 0.011300731044 0.011318192493 
0.011216932586 0.010999696543 0.010674020385 0.010251756405 0.0097482816394 0.0091814685291 0.008570525279 0.0079348216829 0.0072928008327 
0.006661040865 0.0060534843835 0.0080998469917 0.0072980824422 0.0066263263027 0.0060669689742 0.0056014977034 0.0052121875938 0.0048830940182 
0.0046005898451 0.0043536155902 0.0041337451703 0.0039351255132 0.0037543304573 0.0035901622361 0.003443422945 0.0033166635678 0.003213908337 
0.003140351656 0.0031020278972 0.0031054558232 0.0031572594607 0.0032637682738 0.0034306026803 0.0036622550228 0.0039616796443 0.0043299094734 
0.0047657202879 0.0052681284347 0.0058237314179 0.0064226336221 0.0070518451795 0.007695541579 0.0083354827466 0.0089516194241 0.0095228905386 
0.010028191917 0.010447473648 0.010762900487 0.010959989131 0.011028621539 0.010963828835 0.010766249653 0.010442191991 0.010003267833 
0.009465620278 0.0088488149767 0.008174510148 0.0074650418101 0.0067420564169 0.0060252927048 0.0053315682317 0.0076691839386 0.0068217797619 
0.006113195249 0.0055236486337 0.0050324217559 0.0046197512233 0.0042679349113 0.0039619197641 0.0036895607768 0.0034416702751 0.0032119318276 
0.0029967294337 0.0027949264023 0.002607613018 0.0024378296284 0.0022902661346 0.0021709385297 0.0020868430028 0.002045586991 0.0020549960293 
0.0021226965526 0.0022556779281 0.0024598406284 0.0027395411362 0.0030971494196 0.0035326482023 0.0040477191468 0.0046288116414 0.0052664884318 
0.005947711155 0.0066560387468 0.0073719708006 0.0080735085284 0.0087369509048 0.0093379160037 0.0098525521791 0.010258876276 0.010538148347 
0.010676168573 0.010664367594 0.010500562008 0.01018926667 0.009741495839 0.0091740430533 0.0085082959635 0.0077687041315 0.006981060563 
0.0061707702577 0.0053612582416 0.0045726235285 0.0070805425573 0.0061925456211 0.0054508944689 0.0048337851401 0.0043183863088 0.0038829494029 
0.0035080506819 0.0031772498492 0.0028773697757 0.0025985334373 0.0023340491692 0.0020802055814 0.0018360151869 0.0016029286515 0.0013845299821 
0.0011862168376 0.0010148665931 0.00087848552246 0.00078583636419 0.00074603935302 0.00076814359519 0.00086066892373 0.0010311218875 0.0012854923192 
0.0016277365584 0.0020592441577 0.0025843206406 0.0031906231222 0.00386917104 0.0046071143497 0.0053876226389 0.0061900728699 0.0069905242418 
0.0077624837151 0.0084779592623 0.0091087763668 0.0096281023587 0.010012087512 0.01024149671 0.010303177734 0.010191199734 0.0099075054929 
0.0094619584755 0.0088717298222 0.0081600535369 0.0073544651703 0.0064847108921 0.0055805518334 0.0046696831997 0.0037759429427 0.0063240452736 
0.0054008720597 0.0046302935941 0.0039885522197 0.0034507409077 0.0029931680442 0.0025947516793 0.0022377503299 0.0019080544141 0.0015951983256 
0.0012922048806 0.00099533660453 0.00070380030982 0.00041943139569 0.00014637060414 -0.00010926309014 -0.00033970620796 -0.00053589808201 -0.00068785032195 
-0.00078504655138 -0.00081687836946 -0.00077311996058 -0.00064443966555 -0.00042294313426 -0.0001027436594 0.00031942003936 0.00084850857652 0.0014779585969 
0.0021976067788 0.0029953260339 0.0038542925254 0.0047530275533 0.0056657667618 0.0065631640266 0.0074133465817 0.0081833167428 0.0088406598395 
0.0093554731162 0.0097023816351 0.0098624623295 0.0098248663996 0.0095879243518 0.0091595467537 0.0085568013388 0.0078046483185 0.0069339345807 
0.0059788585965 0.0049741933329 0.0039525737621 0.0029421150678 0.0053913843705 0.0044389134295 0.0036438392632 0.002980503043 0.002422006182 
0.0019428285369 0.0015203616132 0.0011356912044 0.00077388342561 0.00042396263443 7.8713139552e-05 -0.00026560924576 -0.00060960329093 -0.00095105714042 
-0.0012852794239 -0.0016054256186 -0.0019028259122 -0.0021673245755 -0.0023876420151 -0.0025517702632 -0.002647410634 -0.0026624586859 -0.002585536453 
-0.0024065636488 -0.0021173417795 -0.0017120699543 -0.0011874940556 -0.00053939146061 0.00021913544881 0.0010774702 0.0020193289049 0.0030227754038 
0.0040604727003 0.0051002841451 0.0061062857734 0.0070402167334 0.0078633521007 0.0085387277136 0.0090335826377 0.0093218189595 0.0093862228784 
0.0092201610345 0.0088284777581 0.0082273837797 0.0074432453851 0.0065103398396 0.005467806651 0.0043561537767 0.003213736228 0.002073594731 
0.0042760577529 0.0033004640832 0.0024854098309 0.001803478622 0.0012259622889 0.00072569675884 0.00027870685629 -0.00013497635286 -0.00053103839097 
-0.000920931198 -0.0013121035137 -0.0017083178544 -0.0021099974181 -0.0025145725589 -0.0029168150111 -0.0033091603881 -0.0036820268973 -0.0040241419872 
-0.0043228904118 -0.0045646975235 -0.0047354601905 -0.0048210347446 -0.0048077869092 -0.0046832022709 -0.0044365464097 -0.004059550684 -0.0035470992907 
-0.0028889518408 -0.0020969469344 -0.0011799755589 -0.00015326380241 0.00096130703558 0.0021352308228 0.0033338030432 0.0045170243484 0.0056410418891 
0.0066601463481 0.0075292805556 0.008206936109 0.0086582243077 0.0088578203878 0.0087924156453 0.0084622947258 0.007881706877 0.007077830664 
0.006088330927 0.0049577380537 0.0037330854249 0.0024593601447 0.0011753155964 0.0029733808785 0.0019809189095 0.0011503805273 0.00045284227812 
-0.00014197222693 -0.00066267259818 -0.0011344605921 -0.0015782761855 -0.002010516988 -0.0024431014867 -0.0028837200707 -0.0033361730853 -0.0038007343803 
-0.0042745071986 -0.0047517594425 -0.0052242387768 -0.0056814762803 -0.0061110922433 -0.0064991206549 -0.0068303700488 -0.0070888375823 -0.0072581909824 
-0.0073223297132 -0.0072660333614 -0.0070757050692 -0.0067402338127 -0.006252082197 -0.0055946207513 -0.0047777006772 -0.0038073220134 -0.0026968805384 
-0.0014675129385 -0.0001483016391 0.0012239057948 0.0026052091751 0.0039460072994 0.0051930516554 0.0062921987016 0.0071917639463 0.0078462649613 
0.0082202149891 0.008291518113 0.0080539544763 0.0075182655485 0.0067114809457 0.0056743701622 0.0044572168317 0.0031144236822 0.0016986686818 
0.00025537178697 0.001480501884 0.00047740082939 -0.00036412965154 -0.00107422191 -0.001684472603 -0.0022247533434 -0.0027213719875 -0.0031961693131 
-0.0036662208601 -0.0041439037183 -0.0046371629648 -0.0051498681621 -0.0056821914122 -0.0062309694576 -0.0067900347719 -0.0073505158587 -0.0079011168218 
-0.0084283925244 -0.0089170394825 -0.0093502242075 -0.009709970357 -0.0099776242784 -0.010134415701 -0.010162127066 -0.010043881969 -0.0097650598237 
-0.0093143236265 -0.0086735924908 -0.0078442062394 -0.0068293750595 -0.0056399971334 -0.004295638714 -0.0028251588972 -0.0012668839066 0.00033181196643 
0.0019156636085 0.0034235269758 0.0047912991537 0.0059556976719 0.0068587088683 0.0074523463341 0.0077031908113 0.007596055104 0.0071360849297 
0.0063487180943 0.0052772008739 0.0039777707516 0.0025130645436 0.00094466199497 -0.00067420352031 -0.0002034668875 -0.0012110527651 -0.0020590977491 
-0.0027786353224 -0.0034023305892 -0.0039611288816 -0.0044823151362 -0.0049885519648 -0.0054975564529 -0.0060221657587 -0.0065706149811 -0.0071469071278 
-0.0077511991215 -0.0083801620922 -0.0090272993666 -0.0096832228639 -0.010335899871 -0.010970889293 -0.011571590734 -0.012119531668 -0.012594718033 
-0.012976072267 -0.013241980272 -0.013370965232 -0.013342500757 -0.013137968324 -0.012741764364 -0.012135716662 -0.011309403978 -0.010262895703 
-0.0090034880929 -0.0075481010981 -0.0059243288407 -0.0041710398437 -0.0023383548946 -0.00048680811792 0.0013144920142 0.0029908319018 0.0044660175435 
0.0056675176446 0.006532273892 0.0070125867719 0.0070812689393 0.0067351389125 0.0059959857778 0.0049084257186 0.0035345830428 0.0019461562063 
0.00021498103847 -0.0015965335521 -0.0020773116752 -0.0030834365348 -0.0039336543503 -0.0046595621741 -0.0052946069531 -0.0058705899423 -0.006415626689 
-0.0069531229667 -0.0075014204499 -0.0080738527418 -0.0086790240059 -0.0093211805005 -0.010000592768 -0.010713903545 -0.011454423831 -0.012212378276 
-0.012975113173 -0.013727287991 -0.014451076168 -0.015126403346 -0.015731251917 -0.0162420601 -0.016634242029 -0.016882851802 -0.016963406186 
-0.016852857601 -0.016530631119 -0.015979325801 -0.015175113654 -0.014113739224 -0.012797670995 -0.011239937678 -0.0094656091098 -0.0075128829571 
-0.0054335654003 -0.0032926919131 -0.0011670252545 0.00085779634718 0.002691590298 0.0042453948494 0.0054383669628 0.0062051920489 0.0065030557505 
0.0063169817017 0.0056622945467 0.004583230799 0.0031473239879 0.001436033758 -0.00046707932635 -0.0024888378463 -0.0041377199023 -0.0051368967696 
-0.0059852632556 -0.006714577203 -0.0073587309003 -0.0079501392521 -0.0085176057202 -0.0090852293449 -0.0096720050799 -0.010291851954 -0.010953873454 
-0.011662713743 -0.012418922801 -0.013219282618 -0.014057075157 -0.014922292468 -0.01580180211 -0.016679489676 -0.017536405833 -0.01835094855 
-0.019099112593 -0.01975483873 -0.020290494776 -0.02067751945 -0.020887258143 -0.020892020197 -0.020666409911 -0.020189128414 -0.019429514304 
-0.018374111353 -0.017019333574 -0.015372998788 -0.01345623047 -0.011305087809 -0.0089716576765 -0.006524290565 -0.0040466298988 -0.0016350937391 
0.0006054554392 0.0025679452102 0.0041510365368 0.0052681813428 0.0058567367587 0.0058856591465 0.0053600876514 0.0043212966193 0.0028411564736 
0.0010113278461 -0.0010713780292 -0.0033211868339 -0.0063794370282 -0.0073669343842 -0.0082099074257 -0.0089398000538 -0.0095905772819 -0.010195025384 
-0.010782523669 -0.011377865306 -0.012000786506 -0.012665939284 -0.013383109291 -0.014157538167 -0.014990259134 -0.015878393908 -0.016815388215 
-0.017791183712 -0.018792338201 -0.019802116081 -0.020800577716 -0.021764700346 -0.022668565344 -0.023483647952 -0.02417924654 -0.024723088886 
-0.025082153613 -0.025223749763 -0.025116924794 -0.024734397179 -0.024045161876 -0.023020219088 -0.021649024995 -0.019932896322 -0.017887497023 
-0.015545071678 -0.012956255882 -0.010191089548 -0.0073387942459 -0.004505849864 -0.0018119444815 0.00061648102171 0.0026550736862 0.0041923055525 