# vtk DataFile Version 4.1
vtk output
ASCII
DATASET STRUCTURED_GRID
DIMENSIONS 51 51 1
POINTS 2601 float
0 0 0 0.02 0 0 0.04 0 0 
0.06 0 0 0.08 0 0 0.1 0 0 
0.12 0 0 0.14 0 0 0.16 0 0 
0.18 0 0 0.2 0 0 0.22 0 0 
0.24 0 0 0.26 0 0 0.28 0 0 
0.3 0 0 0.32 0 0 0.34 0 0 
0.36 0 0 0.38 0 0 0.4 0 0 
0.42 0 0 0.44 0 0 0.46 0 0 
0.48 0 0 0.5 0 0 0.52 0 0 
0.54 0 0 0.56 0 0 0.58 0 0 
0.6 0 0 0.62 0 0 0.64 0 0 
0.66 0 0 0.68 0 0 0.7 0 0 
0.72 0 0 0.74 0 0 0.76 0 0 
0.78 0 0 0.8 0 0 0.82 0 0 
0.84 0 0 0.86 0 0 0.88 0 0 
0.9 0 0 0.92 0 0 0.94 0 0 
0.96 0 0 0.98 0 0 1 0 0 
0 0.02 0 0.02 0.02 0 0.04 0.02 0 
0.06 0.02 0 0.08 0.02 0 0.1 0.02 0 
0.12 0.02 0 0.14 0.02 0 0.16 0.02 0 
0.18 0.02 0 0.2 0.02 0 0.22 0.02 0 
0.24 0.02 0 0.26 0.02 0 0.28 0.02 0 
0.3 0.02 0 0.32 0.02 0 0.34 0.02 0 
0.36 0.02 0 0.38 0.02 0 0.4 0.02 0 
0.42 0.02 0 0.44 0.02 0 0.46 0.02 0 
0.48 0.02 0 0.5 0.02 0 0.52 0.02 0 
0.54 0.02 0 0.56 0.02 0 0.58 0.02 0 
0.6 0.02 0 0.62 0.02 0 0.64 0.02 0 
0.66 0.02 0 0.68 0.02 0 0.7 0.02 0 
0.72 0.02 0 0.74 0.02 0 0.76 0.02 0 
0.78 0.02 0 0.8 0.02 0 0.82 0.02 0 
0.84 0.02 0 0.86 0.02 0 0.88 0.02 0 
0.9 0.02 0 0.92 0.02 0 0.94 0.02 0 
0.96 0.02 0 0.98 0.02 0 1 0.02 0 
0 0.04 0 0.02 0.04 0 0.04 0.04 0 
0.06 0.04 0 0.08 0.04 0 0.1 0.04 0 
0.12 0.04 0 0.14 0.04 0 0.16 0.04 0 
0.18 0.04 0 0.2 0.04 0 0.22 0.04 0 
0.24 0.04 0 0.26 0.04 0 0.28 0.04 0 
0.3 0.04 0 0.32 0.04 0 0.34 0.04 0 
0.36 0.04 0 0.38 0.04 0 0.4 0.04 0 
0.42 0.04 0 0.44 0.04 0 0.46 0.04 0 
0.48 0.04 0 0.5 0.04 0 0.52 0.04 0 
0.54 0.04 0 0.56 0.04 0 0.58 0.04 0 
0.6 0.04 0 0.62 0.04 0 0.64 0.04 0 
0.66 0.04 0 0.68 0.04 0 0.7 0.04 0 
0.72 0.04 0 0.74 0.04 0 0.76 0.04 0 
0.78 0.04 0 0.8 0.04 0 0.82 0.04 0 
0.84 0.04 0 0.86 0.04 0 0.88 0.04 0 
0.9 0.04 0 0.92 0.04 0 0.94 0.04 0 
0.96 0.04 0 0.98 0.04 0 1 0.04 0 
0 0.06 0 0.02 0.06 0 0.04 0.06 0 
0.06 0.06 0 0.08 0.06 0 0.1 0.06 0 
0.12 0.06 0 0.14 0.06 0 0.16 0.06 0 
0.18 0.06 0 0.2 0.06 0 0.22 0.06 0 
0.24 0.06 0 0.26 0.06 0 0.28 0.06 0 
0.3 0.06 0 0.32 0.06 0 0.34 0.06 0 
0.36 0.06 0 0.38 0.06 0 0.4 0.06 0 
0.42 0.06 0 0.44 0.06 0 0.46 0.06 0 
0.48 0.06 0 0.5 0.06 0 0.52 0.06 0 
0.54 0.06 0 0.56 0.06 0 0.58 0.06 0 
0.6 0.06 0 0.62 0.06 0 0.64 0.06 0 
0.66 0.06 0 0.68 0.06 0 0.7 0.06 0 
0.72 0.06 0 0.74 0.06 0 0.76 0.06 0 
0.78 0.06 0 0.8 0.06 0 0.82 0.06 0 
0.84 0.06 0 0.86 0.06 0 0.88 0.06 0 
0.9 0.06 0 0.92 0.06 0 0.94 0.06 0 
0.96 0.06 0 0.98 0.06 0 1 0.06 0 
0 0.08 0 0.02 0.08 0 0.04 0.08 0 
0.06 0.08 0 0.08 0.08 0 0.1 0.08 0 
0.12 0.08 0 0.14 0.08 0 0.16 0.08 0 
0.18 0.08 0 0.2 0.08 0 0.22 0.08 0 
0.24 0.08 0 0.26 0.08 0 0.28 0.08 0 
0.3 0.08 0 0.32 0.08 0 0.34 0.08 0 
0.36 0.08 0 0.38 0.08 0 0.4 0.08 0 
0.42 0.08 0 0.44 0.08 0 0.46 0.08 0 
0.48 0.08 0 0.5 0.08 0 0.52 0.08 0 
0.54 0.08 0 0.56 0.08 0 0.58 0.08 0 
0.6 0.08 0 0.62 0.08 0 0.64 0.08 0 
0.66 0.08 0 0.68 0.08 0 0.7 0.08 0 
0.72 0.08 0 0.74 0.08 0 0.76 0.08 0 
0.78 0.08 0 0.8 0.08 0 0.82 0.08 0 
0.84 0.08 0 0.86 0.08 0 0.88 0.08 0 
0.9 0.08 0 0.92 0.08 0 0.94 0.08 0 
0.96 0.08 0 0.98 0.08 0 1 0.08 0 
0 0.1 0 0.02 0.1 0 0.04 0.1 0 
0.06 0.1 0 0.08 0.1 0 0.1 0.1 0 
0.12 0.1 0 0.14 0.1 0 0.16 0.1 0 
0.18 0.1 0 0.2 0.1 0 0.22 0.1 0 
0.24 0.1 0 0.26 0.1 0 0.28 0.1 0 
0.3 0.1 0 0.32 0.1 0 0.34 0.1 0 
0.36 0.1 0 0.38 0.1 0 0.4 0.1 0 
0.42 0.1 0 0.44 0.1 0 0.46 0.1 0 
0.48 0.1 0 0.5 0.1 0 0.52 0.1 0 
0.54 0.1 0 0.56 0.1 0 0.58 0.1 0 
0.6 0.1 0 0.62 0.1 0 0.64 0.1 0 
0.66 0.1 0 0.68 0.1 0 0.7 0.1 0 
0.72 0.1 0 0.74 0.1 0 0.76 0.1 0 
0.78 0.1 0 0.8 0.1 0 0.82 0.1 0 
0.84 0.1 0 0.86 0.1 0 0.88 0.1 0 
0.9 0.1 0 0.92 0.1 0 0.94 0.1 0 
0.96 0.1 0 0.98 0.1 0 1 0.1 0 
0 0.12 0 0.02 0.12 0 0.04 0.12 0 
0.06 0.12 0 0.08 0.12 0 0.1 0.12 0 
0.12 0.12 0 0.14 0.12 0 0.16 0.12 0 
0.18 0.12 0 0.2 0.12 0 0.22 0.12 0 
0.24 0.12 0 0.26 0.12 0 0.28 0.12 0 
0.3 0.12 0 0.32 0.12 0 0.34 0.12 0 
0.36 0.12 0 0.38 0.12 0 0.4 0.12 0 
0.42 0.12 0 0.44 0.12 0 0.46 0.12 0 
0.48 0.12 0 0.5 0.12 0 0.52 0.12 0 
0.54 0.12 0 0.56 0.12 0 0.58 0.12 0 
0.6 0.12 0 0.62 0.12 0 0.64 0.12 0 
0.66 0.12 0 0.68 0.12 0 0.7 0.12 0 
0.72 0.12 0 0.74 0.12 0 0.76 0.12 0 
0.78 0.12 0 0.8 0.12 0 0.82 0.12 0 
0.84 0.12 0 0.86 0.12 0 0.88 0.12 0 
0.9 0.12 0 0.92 0.12 0 0.94 0.12 0 
0.96 0.12 0 0.98 0.12 0 1 0.12 0 
0 0.14 0 0.02 0.14 0 0.04 0.14 0 
0.06 0.14 0 0.08 0.14 0 0.1 0.14 0 
0.12 0.14 0 0.14 0.14 0 0.16 0.14 0 
0.18 0.14 0 0.2 0.14 0 0.22 0.14 0 
0.24 0.14 0 0.26 0.14 0 0.28 0.14 0 
0.3 0.14 0 0.32 0.14 0 0.34 0.14 0 
0.36 0.14 0 0.38 0.14 0 0.4 0.14 0 
0.42 0.14 0 0.44 0.14 0 0.46 0.14 0 
0.48 0.14 0 0.5 0.14 0 0.52 0.14 0 
0.54 0.14 0 0.56 0.14 0 0.58 0.14 0 
0.6 0.14 0 0.62 0.14 0 0.64 0.14 0 
0.66 0.14 0 0.68 0.14 0 0.7 0.14 0 
0.72 0.14 0 0.74 0.14 0 0.76 0.14 0 
0.78 0.14 0 0.8 0.14 0 0.82 0.14 0 
0.84 0.14 0 0.86 0.14 0 0.88 0.14 0 
0.9 0.14 0 0.92 0.14 0 0.94 0.14 0 
0.96 0.14 0 0.98 0.14 0 1 0.14 0 
0 0.16 0 0.02 0.16 0 0.04 0.16 0 
0.06 0.16 0 0.08 0.16 0 0.1 0.16 0 
0.12 0.16 0 0.14 0.16 0 0.16 0.16 0 
0.18 0.16 0 0.2 0.16 0 0.22 0.16 0 
0.24 0.16 0 0.26 0.16 0 0.28 0.16 0 
0.3 0.16 0 0.32 0.16 0 0.34 0.16 0 
0.36 0.16 0 0.38 0.16 0 0.4 0.16 0 
0.42 0.16 0 0.44 0.16 0 0.46 0.16 0 
0.48 0.16 0 0.5 0.16 0 0.52 0.16 0 
0.54 0.16 0 0.56 0.16 0 0.58 0.16 0 
0.6 0.16 0 0.62 0.16 0 0.64 0.16 0 
0.66 0.16 0 0.68 0.16 0 0.7 0.16 0 
0.72 0.16 0 0.74 0.16 0 0.76 0.16 0 
0.78 0.16 0 0.8 0.16 0 0.82 0.16 0 
0.84 0.16 0 0.86 0.16 0 0.88 0.16 0 
0.9 0.16 0 0.92 0.16 0 0.94 0.16 0 
0.96 0.16 0 0.98 0.16 0 1 0.16 0 
0 0.18 0 0.02 0.18 0 0.04 0.18 0 
0.06 0.18 0 0.08 0.18 0 0.1 0.18 0 
0.12 0.18 0 0.14 0.18 0 0.16 0.18 0 
0.18 0.18 0 0.2 0.18 0 0.22 0.18 0 
0.24 0.18 0 0.26 0.18 0 0.28 0.18 0 
0.3 0.18 0 0.32 0.18 0 0.34 0.18 0 
0.36 0.18 0 0.38 0.18 0 0.4 0.18 0 
0.42 0.18 0 0.44 0.18 0 0.46 0.18 0 
0.48 0.18 0 0.5 0.18 0 0.52 0.18 0 
0.54 0.18 0 0.56 0.18 0 0.58 0.18 0 
0.6 0.18 0 0.62 0.18 0 0.64 0.18 0 
0.66 0.18 0 0.68 0.18 0 0.7 0.18 0 
0.72 0.18 0 0.74 0.18 0 0.76 0.18 0 
0.78 0.18 0 0.8 0.18 0 0.82 0.18 0 
0.84 0.18 0 0.86 0.18 0 0.88 0.18 0 
0.9 0.18 0 0.92 0.18 0 0.94 0.18 0 
0.96 0.18 0 0.98 0.18 0 1 0.18 0 
0 0.2 0 0.02 0.2 0 0.04 0.2 0 
0.06 0.2 0 0.08 0.2 0 0.1 0.2 0 
0.12 0.2 0 0.14 0.2 0 0.16 0.2 0 
0.18 0.2 0 0.2 0.2 0 0.22 0.2 0 
0.24 0.2 0 0.26 0.2 0 0.28 0.2 0 
0.3 0.2 0 0.32 0.2 0 0.34 0.2 0 
0.36 0.2 0 0.38 0.2 0 0.4 0.2 0 
0.42 0.2 0 0.44 0.2 0 0.46 0.2 0 
0.48 0.2 0 0.5 0.2 0 0.52 0.2 0 
0.54 0.2 0 0.56 0.2 0 0.58 0.2 0 
0.6 0.2 0 0.62 0.2 0 0.64 0.2 0 
0.66 0.2 0 0.68 0.2 0 0.7 0.2 0 
0.72 0.2 0 0.74 0.2 0 0.76 0.2 0 
0.78 0.2 0 0.8 0.2 0 0.82 0.2 0 
0.84 0.2 0 0.86 0.2 0 0.88 0.2 0 
0.9 0.2 0 0.92 0.2 0 0.94 0.2 0 
0.96 0.2 0 0.98 0.2 0 1 0.2 0 
0 0.22 0 0.02 0.22 0 0.04 0.22 0 
0.06 0.22 0 0.08 0.22 0 0.1 0.22 0 
0.12 0.22 0 0.14 0.22 0 0.16 0.22 0 
0.18 0.22 0 0.2 0.22 0 0.22 0.22 0 
0.24 0.22 0 0.26 0.22 0 0.28 0.22 0 
0.3 0.22 0 0.32 0.22 0 0.34 0.22 0 
0.36 0.22 0 0.38 0.22 0 0.4 0.22 0 
0.42 0.22 0 0.44 0.22 0 0.46 0.22 0 
0.48 0.22 0 0.5 0.22 0 0.52 0.22 0 
0.54 0.22 0 0.56 0.22 0 0.58 0.22 0 
0.6 0.22 0 0.62 0.22 0 0.64 0.22 0 
0.66 0.22 0 0.68 0.22 0 0.7 0.22 0 
0.72 0.22 0 0.74 0.22 0 0.76 0.22 0 
0.78 0.22 0 0.8 0.22 0 0.82 0.22 0 
0.84 0.22 0 0.86 0.22 0 0.88 0.22 0 
0.9 0.22 0 0.92 0.22 0 0.94 0.22 0 
0.96 0.22 0 0.98 0.22 0 1 0.22 0 
0 0.24 0 0.02 0.24 0 0.04 0.24 0 
0.06 0.24 0 0.08 0.24 0 0.1 0.24 0 
0.12 0.24 0 0.14 0.24 0 0.16 0.24 0 
0.18 0.24 0 0.2 0.24 0 0.22 0.24 0 
0.24 0.24 0 0.26 0.24 0 0.28 0.24 0 
0.3 0.24 0 0.32 0.24 0 0.34 0.24 0 
0.36 0.24 0 0.38 0.24 0 0.4 0.24 0 
0.42 0.24 0 0.44 0.24 0 0.46 0.24 0 
0.48 0.24 0 0.5 0.24 0 0.52 0.24 0 
0.54 0.24 0 0.56 0.24 0 0.58 0.24 0 
0.6 0.24 0 0.62 0.24 0 0.64 0.24 0 
0.66 0.24 0 0.68 0.24 0 0.7 0.24 0 
0.72 0.24 0 0.74 0.24 0 0.76 0.24 0 
0.78 0.24 0 0.8 0.24 0 0.82 0.24 0 
0.84 0.24 0 0.86 0.24 0 0.88 0.24 0 
0.9 0.24 0 0.92 0.24 0 0.94 0.24 0 
0.96 0.24 0 0.98 0.24 0 1 0.24 0 
0 0.26 0 0.02 0.26 0 0.04 0.26 0 
0.06 0.26 0 0.08 0.26 0 0.1 0.26 0 
0.12 0.26 0 0.14 0.26 0 0.16 0.26 0 
0.18 0.26 0 0.2 0.26 0 0.22 0.26 0 
0.24 0.26 0 0.26 0.26 0 0.28 0.26 0 
0.3 0.26 0 0.32 0.26 0 0.34 0.26 0 
0.36 0.26 0 0.38 0.26 0 0.4 0.26 0 
0.42 0.26 0 0.44 0.26 0 0.46 0.26 0 
0.48 0.26 0 0.5 0.26 0 0.52 0.26 0 
0.54 0.26 0 0.56 0.26 0 0.58 0.26 0 
0.6 0.26 0 0.62 0.26 0 0.64 0.26 0 
0.66 0.26 0 0.68 0.26 0 0.7 0.26 0 
0.72 0.26 0 0.74 0.26 0 0.76 0.26 0 
0.78 0.26 0 0.8 0.26 0 0.82 0.26 0 
0.84 0.26 0 0.86 0.26 0 0.88 0.26 0 
0.9 0.26 0 0.92 0.26 0 0.94 0.26 0 
0.96 0.26 0 0.98 0.26 0 1 0.26 0 
0 0.28 0 0.02 0.28 0 0.04 0.28 0 
0.06 0.28 0 0.08 0.28 0 0.1 0.28 0 
0.12 0.28 0 0.14 0.28 0 0.16 0.28 0 
0.18 0.28 0 0.2 0.28 0 0.22 0.28 0 
0.24 0.28 0 0.26 0.28 0 0.28 0.28 0 
0.3 0.28 0 0.32 0.28 0 0.34 0.28 0 
0.36 0.28 0 0.38 0.28 0 0.4 0.28 0 
0.42 0.28 0 0.44 0.28 0 0.46 0.28 0 
0.48 0.28 0 0.5 0.28 0 0.52 0.28 0 
0.54 0.28 0 0.56 0.28 0 0.58 0.28 0 
0.6 0.28 0 0.62 0.28 0 0.64 0.28 0 
0.66 0.28 0 0.68 0.28 0 0.7 0.28 0 
0.72 0.28 0 0.74 0.28 0 0.76 0.28 0 
0.78 0.28 0 0.8 0.28 0 0.82 0.28 0 
0.84 0.28 0 0.86 0.28 0 0.88 0.28 0 
0.9 0.28 0 0.92 0.28 0 0.94 0.28 0 
0.96 0.28 0 0.98 0.28 0 1 0.28 0 
0 0.3 0 0.02 0.3 0 0.04 0.3 0 
0.06 0.3 0 0.08 0.3 0 0.1 0.3 0 
0.12 0.3 0 0.14 0.3 0 0.16 0.3 0 
0.18 0.3 0 0.2 0.3 0 0.22 0.3 0 
0.24 0.3 0 0.26 0.3 0 0.28 0.3 0 
0.3 0.3 0 0.32 0.3 0 0.34 0.3 0 
0.36 0.3 0 0.38 0.3 0 0.4 0.3 0 
0.42 0.3 0 0.44 0.3 0 0.46 0.3 0 
0.48 0.3 0 0.5 0.3 0 0.52 0.3 0 
0.54 0.3 0 0.56 0.3 0 0.58 0.3 0 
0.6 0.3 0 0.62 0.3 0 0.64 0.3 0 
0.66 0.3 0 0.68 0.3 0 0.7 0.3 0 
0.72 0.3 0 0.74 0.3 0 0.76 0.3 0 
0.78 0.3 0 0.8 0.3 0 0.82 0.3 0 
0.84 0.3 0 0.86 0.3 0 0.88 0.3 0 
0.9 0.3 0 0.92 0.3 0 0.94 0.3 0 
0.96 0.3 0 0.98 0.3 0 1 0.3 0 
0 0.32 0 0.02 0.32 0 0.04 0.32 0 
0.06 0.32 0 0.08 0.32 0 0.1 0.32 0 
0.12 0.32 0 0.14 0.32 0 0.16 0.32 0 
0.18 0.32 0 0.2 0.32 0 0.22 0.32 0 
0.24 0.32 0 0.26 0.32 0 0.28 0.32 0 
0.3 0.32 0 0.32 0.32 0 0.34 0.32 0 
0.36 0.32 0 0.38 0.32 0 0.4 0.32 0 
0.42 0.32 0 0.44 0.32 0 0.46 0.32 0 
0.48 0.32 0 0.5 0.32 0 0.52 0.32 0 
0.54 0.32 0 0.56 0.32 0 0.58 0.32 0 
[...]
CELL_DATA 2500
FIELD FieldData 1
pressure 1 2500 double
0.0061749204005 0.0061079304991 0.0059195636358 0.005645985436 0.0053263996574 0.0049951209432 0.0046791654918 0.0043975707799 0.004162289802 
0.0039802876533 0.0038557991597 0.0037918227988 0.0037906537619 0.0038538634093 0.0039822246111 0.0041758053215 0.0044341582858 0.0047564351079 
0.005141328433 0.0055868652659 0.0060901379361 0.0066470517917 0.0072521283657 0.0078983685936 0.0085771655191 0.009278250454 0.0099892965479 
0.010697088418 0.011387713342 0.012046669826 0.012659282862 0.013211222393 0.013689093013 0.014081060587 0.014377478233 0.014571472867 
0.014659455014 0.014641518814 0.014521706797 0.014308125483 0.014012912676 0.013652072959 0.013245211212 0.012815199922 0.012387812887 
0.011991226669 0.011655258529 0.011409441832 0.0112778626 0.011265438219 0.0062415087525 0.0061770083955 0.0060158938035 0.0057868031237 
0.0055204636667 0.0052445669238 0.004980623863 0.0047436168177 0.0045435941703 0.0043876412916 0.0042811342292 0.0042281410455 0.0042314451279 
0.0042926504507 0.0044124834494 0.0045911348094 0.0048284533559 0.0051239280697 0.0054765171863 0.0058844238959 0.0063448894948 0.0068540284934 
0.007406702841 0.0079964298187 0.0086153279904 0.0092541186835 0.0099012359193 0.010544729542 0.011172060368 0.011770170024 0.012325890243 
0.012826427625 0.013259902944 0.013615915483 0.013886099707 0.014064640721 0.014148715754 0.014138831988 0.014039037522 0.01385699236 
0.013603898208 0.013294296858 0.012945754539 0.012578448807 0.012214655248 0.011878079147 0.011592836945 0.011381884311 0.011264385401 
0.011253008006 0.0064375623168 0.0063414912409 0.0061748675629 0.005961218029 0.0057243841433 0.0054844183941 0.0052562701144 0.0050508620901 
0.0048767444883 0.0047409760571 0.0046491464286 0.0046051912467 0.0046115251215 0.0046695112511 0.0047799680166 0.0049434492415 0.0051602467633 
0.0054302238614 0.005752612472 0.0061258458744 0.0065474330319 0.0070138534573 0.0075204589992 0.008061388323 0.0086295139173 0.0092164478853 
0.0098111399871 0.010402659446 0.010979490568 0.011529616287 0.012040920948 0.012501655058 0.012900942807 0.013229307315 0.013479185214 
0.013645399769 0.013725560736 0.013720361276 0.013633748542 0.013472954166 0.013248381375 0.012973355138 0.012663749041 0.012337503483 
0.012014040031 0.011713556401 0.011456160305 0.011260877599 0.011144759179 0.011123238191 0.0067237118974 0.0065711314333 0.0063773753459 
0.00615975888 0.0059342128556 0.0057130852562 0.0055058015954 0.0053203836241 0.005164132237 0.0050432827563 0.0049624524017 0.0049245922256 
0.0049314846463 0.0049843728378 0.0050843400462 0.0052323464616 0.0054290580009 0.0056746399791 0.0059686054976 0.0063097176754 0.0066959064774 
0.0071241712581 0.0075904689376 0.0080896093054 0.0086151856413 0.0091595664497 0.0097120829047 0.010262568303 0.010800226361 0.011313742072 
0.011791673804 0.012222902728 0.012597121808 0.012905342258 0.013140390386 0.013297363324 0.013374009938 0.013371005466 0.013292095055 
0.013144090978 0.012936718688 0.012682317627 0.012395412637 0.012092177218 0.011789810948 0.011505853503 0.01125746897 0.011060791048 
0.010930539985 0.01088035835 0.0070587058768 0.0068375778079 0.0066043603278 0.0063692237882 0.0061402668642 0.0059236743125 0.0057251306302 
0.0055505311368 0.0054054789237 0.0052944046981 0.0052202246363 0.0051847147227 0.005189168094 0.0052348525237 0.0053230983454 0.0054551356244 
0.0056318762799 0.005853755844 0.006120642314 0.0064317649994 0.0067856198559 0.0071798395535 0.0076110468229 0.0080747230179 0.0085651212626 
0.0090752450445 0.0095947360415 0.010113951397 0.010622573098 0.011109708245 0.011564268723 0.011975411011 0.012333020071 0.012628215516 
0.012853851271 0.013004974283 0.013079205527 0.013077009221 0.013001823096 0.012860032173 0.012660779989 0.012415624429 0.012138058677 
0.011842927634 0.011545777863 0.011262185537 0.011007115504 0.010794380286 0.010636285681 0.010543483578 0.0074084588766 0.007115350099 
0.006835877738 0.006573245622 0.0063294457208 0.0061066583032 0.0059080479372 0.0057373031852 0.0055976032616 0.0054910258779 0.005418731911 
0.0053815561081 0.0053804844856 0.005416784581 0.0054918679979 0.0056070743958 0.0057635028148 0.0059619108177 0.0062026392854 0.0064855137761 
0.0068096999276 0.0071735238431 0.0075742894265 0.0080081265052 0.0084698928982 0.0089531425878 0.009447815427 0.0099445707743 0.010433378843 
0.010903534229 0.011344025699 0.01174397475 0.012093127241 0.012382374508 0.012604272092 0.012753518114 0.01282735118 0.012825830355 
0.012751966636 0.01261168533 0.012413612137 0.012168691996 0.011889666163 0.011590446499 0.011285436696 0.010988855916 0.010714118312 
0.010473309981 0.010276767319 0.010132639133 0.0077459547699 0.0073812598046 0.0070513725804 0.0067540707796 0.006487558748 0.0062515218576 
0.006046801481 0.0058743590595 0.0057345620654 0.0056272282649 0.0055521261624 0.0055094206146 0.0054998088918 0.0055244037776 0.005584535253 
0.0056815867586 0.0058168868922 0.0059916213815 0.0062067208059 0.0064626984966 0.0067594428407 0.0070959925728 0.0074703302858 0.0078792197442 
0.0083180984831 0.0087810298588 0.0092582947606 0.0097406422881 0.010218177482 0.010680183488 0.011115486534 0.011512901358 0.011861740594 
0.01215236218 0.012376719937 0.012528875945 0.012605430973 0.01260583137 0.01253251747 0.012390889302 0.012189080931 0.01193755378 
0.011648538357 0.011335370505 0.011011780552 0.010691197413 0.010386120076 0.010107584542 0.0098647031668 0.0096641611158 0.0080486414895 
0.0076136261664 0.0072307118735 0.0068943968359 0.0066007359415 0.0063472795986 0.0061321285558 0.0059532018052 0.0058082429839 0.0056952934045 
0.0056131124839 0.0055612902418 0.0055401226424 0.0055504267014 0.0055933978606 0.0056705127879 0.0057834366509 0.0059338953607 0.0061234923285 
0.0063534737057 0.0066244679985 0.006936234415 0.0072874455957 0.0076755151085 0.0080964712545 0.008544880364 0.0090114581598 0.0094868322587 
0.0099611202908 0.01042342898 0.010862218368 0.011265759257 0.011622666594 0.011922481046 0.012156261548 0.012317144499 0.012400822013 
0.012405892993 0.012334046819 0.012190051026 0.011981531458 0.011718554849 0.011413045495 0.011078087576 0.010727178504 0.010373501282 
0.010029271529 0.0097051867499 0.0094099552822 0.0091498141086 0.0082961858382 0.0077921545169 0.0073552441907 0.0069783076365 0.0066556702162 
0.0063823390978 0.0061533258438 0.0059636969977 0.0058091226562 0.0056863490108 0.0055933065643 0.005528953833 0.0054930791725 0.0054861760719 
0.0055093748694 0.00556436647 0.0056532713129 0.0057784384365 0.005942184958 0.0061465044071 0.0063927780029 0.0066815131595 0.0070121167472 
0.0073827011113 0.0077899237694 0.0082288707754 0.0086908390445 0.0091661268335 0.0096447762694 0.01011558976 0.010566494103 0.010985011033 
0.011358816858 0.011676362817 0.011927517663 0.012104185853 0.012200850005 0.012214986078 0.012147304752 0.012001784185 0.011785477591 
0.011508102707 0.011181445025 0.010818630032 0.010433335829 0.010039020964 0.0096482303027 0.0092720131459 0.0089194404526 0.0085971533095 
0.0084695334201 0.0078982643704 0.0074082450773 0.0069911857604 0.0066392226624 0.0063443555049 0.0060986054333 0.0058947300187 0.0057268648548 
0.0055907107314 0.005483363313 0.0054030759985 0.0053491277836 0.0053217829586 0.0053222500315 0.0053525691042 0.0054154073517 0.0055137797133 
0.0056507310432 0.0058290176427 0.0060508117644 0.0063174327613 0.0066290978297 0.0069846897345 0.0073815511122 0.0078153239013 0.0082780930022 
0.0087596350107 0.0092498696263 0.0097372092586 0.010208919002 0.010651596653 0.011051756823 0.011396491921 0.011674171709 0.011875133336 
0.011992306607 0.01202171676 0.011962810218 0.011818559924 0.011595325849 0.011302471991 0.010951769426 0.010556642274 0.010131332942 
0.0096900693369 0.0092463066501 0.0088120883206 0.008397525903 0.0080103492011 0.0085509660192 0.0079153086296 0.0073746592874 0.0069191406366 
0.0065380822765 0.0062204156304 0.0059556406039 0.0057347565252 0.0055506574136 0.0053980258657 0.0052730669543 0.0051733421029 0.0050977349714 
0.0050464467909 0.0050209197953 0.0050236489763 0.0050578980535 0.0051273643407 0.0052358384864 0.0053868850816 0.0055835445605 0.0058280432455 
0.006121503751 0.0064636634999 0.0068526214369 0.0072846365806 0.0077528591571 0.0082463860862 0.008755016822 0.0092667359509 0.0097680590213 
0.010244513725 0.01068124343 0.011063708877 0.011378451395 0.011613868528 0.011760942793 0.011813858536 0.011770442624 0.011632374387 
0.011405129388 0.011097649097 0.010721760189 0.010291399081 0.0098217215649 0.0093281886325 0.008825712813 0.0083279232992 0.0078465654496 
0.0073910039545 0.0085244196928 0.0078284054126 0.0072405274752 0.0067485777714 0.0063388316144 0.0059975005475 0.0057120894616 0.0054721535149 
0.0052693878637 0.0050973998497 0.0049515133688 0.0048287178871 0.0047276835206 0.004648722536 0.0045936317178 0.0045654197057 0.0045679670046 
0.0046056735693 0.0046831257756 0.0048047820877 0.0049746583593 0.0051959983847 0.0054709335881 0.0058001513196 0.0061825979448 0.0066152437765 
0.007092670339 0.0076031833411 0.0081365220341 0.0086802584803 0.0092201133524 0.009740427227 0.010224776502 0.010656714415 0.011020603461 
0.011302489841 0.011490956839 0.0115778843 0.011559038785 0.011434425922 0.011208354788 0.010889192357 0.010488820909 0.010021848639 
0.0095046544913 0.0089543667342 0.0083878736636 0.0078209427334 0.0072674842642 0.0067389501917 0.0083755490871 0.007624011856 0.0069925612696 
0.0064661968073 0.0060283490689 0.0056629926541 0.00535596428 0.0050954262089 0.0048718028396 0.0046776135031 0.0045074097696 0.0043577945341 
0.0042274100773 0.0041168121111 0.0040282177824 0.0039651717857 0.0039321915338 0.0039344302934 0.0039773589695 0.0040664427075 0.0042067908893 
0.004402778894 0.0046576582185 0.0049731792234 0.005349251518 0.005783665741 0.0062729754688 0.006804571356 0.0073682800814 0.0079513355845 
0.0085386647021 0.0091133392326 0.0096571950187 0.010151607409 0.010578394636 0.010920801309 0.011164496398 0.011298505535 0.011315989942 
0.011214786753 0.010997640867 0.010672085982 0.010249970055 0.0097466643187 0.0091800345598 0.0085692821197 0.0079337703574 0.0072919368375 
0.0066603551286 0.0060529649344 0.0080914776683 0.00728954496 0.0066180844379 0.0060593221729 0.0055942793042 0.0052050405327 0.0048758441169 
0.0045933725882 0.0043467336208 0.0041274413595 0.0039294515925 0.0037491696437 0.0035853485717 0.0034388562417 0.0033123506612 0.0032099279622 
0.0031367885426 0.00309892485 0.0031028035086 0.0031550135866 0.00326187305 0.0034290060917 0.0036609124084 0.0039605495515 0.0043289476427 
0.0047648766988 0.0052673494219 0.0058229622763 0.0064218254057 0.0070509585393 0.0076945482124 0.008334364904 0.0089503686344 0.0095215065518 
0.01002668226 0.010445853553 0.010761192836 0.01095822397 0.011026834814 0.010962060183 0.01076453965 0.010440579404 0.010001787104 
0.0094642997733 0.008847675986 0.0081735664976 0.0074643001815 0.0067415171462 0.0060249505976 0.0053314144189 0.0076604688907 0.0068132560464 
0.0061052659285 0.0055163033101 0.0050253596156 0.0046127425672 0.004261007206 0.0039552788348 0.0036833973101 0.0034360301909 0.0032067234336 
0.0029918256868 0.0027902690097 0.0026032477233 0.0024338657549 0.0022868056457 0.0021680267476 0.0020844627782 0.0020436838302 0.0020535083064 
0.0021215729109 0.0022548786371 0.0024593292072 0.0027392748874 0.0030970749245 0.0035327030739 0.0040478390686 0.0046289360788 0.0052665649827 
0.0059476969993 0.0066559001349 0.0073716820022 0.0080730515095 0.0087363160728 0.0093371035187 0.0098515730056 0.010257752388 0.010536911805 
0.010674859452 0.010663031062 0.010499245165 0.010188015569 0.0097403528458 0.0091730448472 0.0085074721931 0.0077680764931 0.0069806427044 
0.0061705682792 0.0053612713888 0.0045728463924 0.0070717624433 0.0061843627639 0.0054434387398 0.0048267894706 0.0043115592447 0.0038762260721 
0.0035015685598 0.0031711717593 0.0028717450735 0.0025932900314 0.0023290857214 0.0020754920017 0.0018316264342 0.001599000378 0.0013811814712 
0.0011834979393 0.0010127541114 0.00087691557617 0.00078474217613 0.00074537209207 0.00076787198236 0.00086076607571 0.0010315513321 0.0012862014026 
0.0016286588727 0.0020603070086 0.0025854500614 0.0031917591771 0.0038702570781 0.0046081000543 0.005388463725 0.0061907315496 0.0069909710162 
0.0077626998348 0.0084779388125 0.0091085272371 0.009627645878 0.010011456915 0.010240734728 0.010302333687 0.010190326552 0.0099066567546 
0.0094611855302 0.0088710792101 0.0081595648747 0.0073541694267 0.0064846297607 0.0055806979553 0.0046700609047 0.0037765508784 0.0063156570444 
0.0053933111733 0.0046233461448 0.0039818451809 0.0034441168332 0.0029867259447 0.0025886711203 0.0022321165639 0.0019028187508 0.001590262415 
0.0012875322497 0.000991001124 0.00069994779652 0.00041619768443 0.00014381955497 -0.00011114812226 -0.00034098821077 -0.0005366430259 -0.0006881019109 
-0.00078482634142 -0.00081620219789 -0.0007720161195 -0.00064295790471 -0.00042115183472 -0.00010071966125 0.0003216032369 0.0008507553199 0.001480225453 
0.0021998249431 0.0029974323959 0.0038562290462 0.0047547436308 0.0056672224641 0.0065643328983 0.0074142172659 0.0081838933071 0.0088409610648 
0.0093555310939 0.0097022398422 0.0098621732536 0.0098244888397 0.0095875202256 0.0091591776014 0.0085565248415 0.0078045152313 0.0069339861943 
0.0059791256243 0.0049746959066 0.0039533222398 0.0029431130631 0.0053837658798 0.0044320350668 0.0036372762423 0.0029739829706 0.0024155833329 
0.0019367223713 0.0015147284702 0.0011305258059 0.00076908150504 0.00041945001742 7.4526970675e-05 -0.00026933642852 -0.00061272362152 -0.00095348181008 
-0.0012870009087 -0.0016064900309 -0.001903288627 -0.0021672207666 -0.0023869839044 -0.0025505638587 -0.0026456762739 -0.0026602421462 -0.0025829064497 
-0.0024036007587 -0.0021141275264 -0.0017086819441 -0.001184010368 -0.00053588110141 0.00022259516219 0.0010808027804 0.0020224632377 0.0030256499123 
0.0040630385936 0.0051025074391 0.0061081482236 0.0070417160796 0.0078645019084 0.0085395568512 0.0090341341637 0.0093221481886 0.0093863946473 
0.0092202460001 0.0088285481298 0.0082275089521 0.0074434880202 0.0065107525677 0.0054684304277 0.0043570175317 0.0032148575686 0.0020749833215 
0.0042693172439 0.003294146469 0.0024791274567 0.0017971998291 0.0012199226703 0.00072013301924 0.00027368186892 -0.0001395581799 -0.00053529608383 
-0.00092488630528 -0.0013156580327 -0.001711320861 -0.0021123299985 -0.0025161894846 -0.002917731323 -0.0033094112893 -0.0036816354968 -0.0040231118629 
-0.0043212196137 -0.0045623991842 -0.0047325749777 -0.0048176289768 -0.0048039408059 -0.0046789980263 -0.0044320630502 -0.0040548661425 -0.0035422959882 
-0.0028841087939 -0.0020921578659 -0.00117533007 -0.0001488437549 0.00096543087377 0.0021390008515 0.003337176104 0.00451997279 0.0056435546707 
0.0066622299993 0.007530959584 0.008208252413 0.0086592353766 0.008858596403 0.0087930353732 0.0084628407039 0.0078822603778 0.0070784670186 
0.0060891153476 0.0049587232302 0.0037343105776 0.0024608514346 0.001177089872 0.0029674053768 0.0019750532662 0.0011444564711 0.00044705160857 
-0.00014734335593 -0.00066748410697 -0.0011387717032 -0.0015822303632 -0.002014192207 -0.0024464443338 -0.0028865871501 -0.0033384192228 -0.0038022737026 
-0.0042753178989 -0.0047518517128 -0.0052236214392 -0.0056801442165 -0.006109035904 -0.0064963451975 -0.0068269086527 -0.0070847507335 -0.0072535547551 
-0.0073172230874 -0.0072605329113 -0.0070698875725 -0.006734181282 -0.0062458831157 -0.0055883797315 -0.0047715191252 -0.003801298279 -0.0026911048341 
-0.0014620649833 -0.00014324929237 0.0012285081305 0.0026093226833 0.0039496110254 0.005196144309 0.0062947995258 0.0071939123587 0.0078480189465 
0.0082216483495 0.00829271635 0.0080550097467 0.0075192710838 0.0067125255336 0.0056755328569 0.004458563512 0.003116005284 0.0017005212149 
0.00025752044971 0.0014751527308 0.00047202249159 -0.00036947261875 -0.0010792525807 -0.0016889919314 -0.0022287635348 -0.0027250075551 -0.0031995424675 
-0.0036693189926 -0.0041465989016 -0.0046392939493 -0.0051513158641 -0.0056829013474 -0.0062309287906 -0.006789238584 -0.0073489497012 -0.0078987616319 
-0.0084252421173 -0.0089131151886 -0.0093455761701 -0.0097046665866 -0.009971737375 -0.010128016886 -0.010155289426 -0.010036687001 -0.0097576007229 
-0.0093067029949 -0.0086659239388 -0.0078365984385 -0.0068219336996 -0.0056328207232 -0.0042888171695 -0.0028187717697 -0.0012609976086 0.00033714736236 
0.0019204172013 0.0034276890214 0.0047948821324 0.0059587363469 0.006861259312 0.0074544837844 0.0077050058605 0.0075976485983 0.007137561859 
0.0063501811251 0.0052787437892 0.0039794737916 0.0025149916458 0.00094686031429 -0.00067169920811 -0.00020821734975 -0.0012157982262 -0.0020636502257 
-0.0027827749518 -0.0034060014573 -0.0039644299522 -0.0044853658264 -0.0049913686596 -0.0055000302232 -0.0060241301836 -0.006571929306 -0.0071474936672 
-0.007751028732 -0.0083792196309 -0.0090255611302 -0.0096806573764 -0.010332484625 -0.010966627939 -0.011566517824 -0.01211370332 -0.012588197959 
-0.012968924331 -0.013234271351 -0.013362772864 -0.013333917542 -0.013129099431 -0.012732719457 -0.012126626016 -0.011300367869 -0.010254029163 
-0.0089948994027 -0.0075398912286 -0.005916588688 -0.0041638466594 -0.0023317689946 -0.00048087029321 0.0013197624722 0.0029954387651 0.0044699885752 
0.0056709046152 0.0065351512581 0.0070150483113 0.0070834227204 0.0067371007708 0.0059978719589 0.00491034505 0.0035366309496 0.0019484107813 
0.00021750185322 -0.0015937009112 -0.0020813851887 -0.0030874007478 -0.0039373190003 -0.0046628282109 -0.0052975276619 -0.005873274007 -0.0064181095947 
-0.0069553167356 -0.0075031617592 -0.0080749878139 -0.0086794591347 -0.0093208762574 -0.0099995283273 -0.010712047895 -0.01145173181 -0.012208807079 
-0.012970643343 -0.013721933342 -0.01444487736 -0.015119413285 -0.015723525873 -0.016233657031 -0.016625232639 -0.01687332442 -0.016953465527 
-0.016842618048 -0.016520209853 -0.015968841268 -0.015164680966 -0.014103478748 -0.012787700044 -0.011230366624 -0.0094565377593 -0.0075043973276 
-0.0054257351009 -0.0032855678321 -0.001160637218 0.00086344198094 0.0026965125681 0.0042496391841 0.0054420047055 0.0062083176994 0.0065057822877 
0.0063194339601 0.0056646012159 0.0045855154286 0.0031496976049 0.0014385895296 -0.0004642682623 -0.0024857139353 -0.0041410049508 -0.0051399865788 
-0.0059880329743 -0.0067170360459 -0.007360970871 -0.0079522129937 -0.008519451471 -0.0090866941767 -0.0096729259516 -0.010292119225 -0.010953437344 
-0.011661549783 -0.012416995984 -0.013216536407 -0.014053446239 -0.014917735592 -0.015796306491 -0.016673077291 -0.017529116945 -0.01834282888 
-0.019090211852 -0.019745218333 -0.020280235114 -0.020666720069 -0.020876031321 -0.020880483407 -0.020654682237 -0.020177333873 -0.019417761676 
-0.018362534161 -0.017008056932 -0.015362139324 -0.013445894098 -0.011295367548 -0.0089626315223 -0.0065160190653 -0.0040391532681 -0.0016284287461 
0.00061131814114 0.0025730428842 0.0041554348061 0.0052719723433 0.0058600352452 0.005888596212 0.0053628024424 0.0043239263511 0.0028438276116 
0.0010141491474 -0.0010683189803 -0.0033178195326 -0.0063818363804 -0.0073691028906 -0.0082118029629 -0.0089414954761 -0.0095921453948 -0.010196440924 
-0.010783654758 -0.011378542819 -0.012000879717 -0.012665380603 -0.01338186721 -0.014155576017 -0.014987514407 -0.015874787413 -0.016810850459 
-0.017785677814 -0.018785864695 -0.019794700396 -0.020792254649 -0.02175550905 -0.022658555746 -0.023472889353 -0.024167829644 -0.024711120292 
-0.025069747715 -0.025211023611 -0.025103996748 -0.024721383228 -0.024032205984 -0.023007448871 -0.021636566726 -0.019920869165 -0.017876010531 
-0.015534223938 -0.012946131453 -0.010181756847 -0.0073303023893 -0.0044982252849 -0.0018051878901 0.00062239712936 0.0026602065417 0.0041967415224 