# vtk DataFile Version 4.1
vtk output
ASCII
DATASET STRUCTURED_GRID
DIMENSIONS 51 51 1
POINTS 2601 float
0 0 0 0.02 0 0 0.04 0 0 
0.06 0 0 0.08 0 0 0.1 0 0 
0.12 0 0 0.14 0 0 0.16 0 0 
0.18 0 0 0.2 0 0 0.22 0 0 
0.24 0 0 0.26 0 0 0.28 0 0 
0.3 0 0 0.32 0 0 0.34 0 0 
0.36 0 0 0.38 0 0 0.4 0 0 
0.42 0 0 0.44 0 0 0.46 0 0 
0.48 0 0 0.5 0 0 0.52 0 0 
0.54 0 0 0.56 0 0 0.58 0 0 
0.6 0 0 0.62 0 0 0.64 0 0 
0.66 0 0 0.68 0 0 0.7 0 0 
0.72 0 0 0.74 0 0 0.76 0 0 
0.78 0 0 0.8 0 0 0.82 0 0 
0.84 0 0 0.86 0 0 0.88 0 0 
0.9 0 0 0.92 0 0 0.94 0 0 
0.96 0 0 0.98 0 0 1 0 0 
0 0.02 0 0.02 0.02 0 0.04 0.02 0 
0.06 0.02 0 0.08 0.02 0 0.1 0.02 0 
0.12 0.02 0 0.14 0.02 0 0.16 0.02 0 
0.18 0.02 0 0.2 0.02 0 0.22 0.02 0 
0.24 0.02 0 0.26 0.02 0 0.28 0.02 0 
0.3 0.02 0 0.32 0.02 0 0.34 0.02 0 
0.36 0.02 0 0.38 0.02 0 0.4 0.02 0 
0.42 0.02 0 0.44 0.02 0 0.46 0.02 0 
0.48 0.02 0 0.5 0.02 0 0.52 0.02 0 
0.54 0.02 0 0.56 0.02 0 0.58 0.02 0 
0.6 0.02 0 0.62 0.02 0 0.64 0.02 0 
0.66 0.02 0 0.68 0.02 0 0.7 0.02 0 
0.72 0.02 0 0.74 0.02 0 0.76 0.02 0 
0.78 0.02 0 0.8 0.02 0 0.82 0.02 0 
0.84 0.02 0 0.86 0.02 0 0.88 0.02 0 
0.9 0.02 0 0.92 0.02 0 0.94 0.02 0 
0.96 0.02 0 0.98 0.02 0 1 0.02 0 
0 0.04 0 0.02 0.04 0 0.04 0.04 0 
0.06 0.04 0 0.08 0.04 0 0.1 0.04 0 
0.12 0.04 0 0.14 0.04 0 0.16 0.04 0 
0.18 0.04 0 0.2 0.04 0 0.22 0.04 0 
0.24 0.04 0 0.26 0.04 0 0.28 0.04 0 
0.3 0.04 0 0.32 0.04 0 0.34 0.04 0 
0.36 0.04 0 0.38 0.04 0 0.4 0.04 0 
0.42 0.04 0 0.44 0.04 0 0.46 0.04 0 
0.48 0.04 0 0.5 0.04 0 0.52 0.04 0 
0.54 0.04 0 0.56 0.04 0 0.58 0.04 0 
0.6 0.04 0 0.62 0.04 0 0.64 0.04 0 
0.66 0.04 0 0.68 0.04 0 0.7 0.04 0 
0.72 0.04 0 0.74 0.04 0 0.76 0.04 0 
0.78 0.04 0 0.8 0.04 0 0.82 0.04 0 
0.84 0.04 0 0.86 0.04 0 0.88 0.04 0 
0.9 0.04 0 0.92 0.04 0 0.94 0.04 0 
0.96 0.04 0 0.98 0.04 0 1 0.04 0 
0 0.06 0 0.02 0.06 0 0.04 0.06 0 
0.06 0.06 0 0.08 0.06 0 0.1 0.06 0 
0.12 0.06 0 0.14 0.06 0 0.16 0.06 0 
0.18 0.06 0 0.2 0.06 0 0.22 0.06 0 
0.24 0.06 0 0.26 0.06 0 0.28 0.06 0 
0.3 0.06 0 0.32 0.06 0 0.34 0.06 0 
0.36 0.06 0 0.38 0.06 0 0.4 0.06 0 
0.42 0.06 0 0.44 0.06 0 0.46 0.06 0 
0.48 0.06 0 0.5 0.06 0 0.52 0.06 0 
0.54 0.06 0 0.56 0.06 0 0.58 0.06 0 
0.6 0.06 0 0.62 0.06 0 0.64 0.06 0 
0.66 0.06 0 0.68 0.06 0 0.7 0.06 0 
0.72 0.06 0 0.74 0.06 0 0.76 0.06 0 
0.78 0.06 0 0.8 0.06 0 0.82 0.06 0 
0.84 0.06 0 0.86 0.06 0 0.88 0.06 0 
0.9 0.06 0 0.92 0.06 0 0.94 0.06 0 
0.96 0.06 0 0.98 0.06 0 1 0.06 0 
0 0.08 0 0.02 0.08 0 0.04 0.08 0 
0.06 0.08 0 0.08 0.08 0 0.1 0.08 0 
0.12 0.08 0 0.14 0.08 0 0.16 0.08 0 
0.18 0.08 0 0.2 0.08 0 0.22 0.08 0 
0.24 0.08 0 0.26 0.08 0 0.28 0.08 0 
0.3 0.08 0 0.32 0.08 0 0.34 0.08 0 
0.36 0.08 0 0.38 0.08 0 0.4 0.08 0 
0.42 0.08 0 0.44 0.08 0 0.46 0.08 0 
0.48 0.08 0 0.5 0.08 0 0.52 0.08 0 
0.54 0.08 0 0.56 0.08 0 0.58 0.08 0 
0.6 0.08 0 0.62 0.08 0 0.64 0.08 0 
0.66 0.08 0 0.68 0.08 0 0.7 0.08 0 
0.72 0.08 0 0.74 0.08 0 0.76 0.08 0 
0.78 0.08 0 0.8 0.08 0 0.82 0.08 0 
0.84 0.08 0 0.86 0.08 0 0.88 0.08 0 
0.9 0.08 0 0.92 0.08 0 0.94 0.08 0 
0.96 0.08 0 0.98 0.08 0 1 0.08 0 
0 0.1 0 0.02 0.1 0 0.04 0.1 0 
0.06 0.1 0 0.08 0.1 0 0.1 0.1 0 
0.12 0.1 0 0.14 0.1 0 0.16 0.1 0 
0.18 0.1 0 0.2 0.1 0 0.22 0.1 0 
0.24 0.1 0 0.26 0.1 0 0.28 0.1 0 
0.3 0.1 0 0.32 0.1 0 0.34 0.1 0 
0.36 0.1 0 0.38 0.1 0 0.4 0.1 0 
0.42 0.1 0 0.44 0.1 0 0.46 0.1 0 
0.48 0.1 0 0.5 0.1 0 0.52 0.1 0 
0.54 0.1 0 0.56 0.1 0 0.58 0.1 0 
0.6 0.1 0 0.62 0.1 0 0.64 0.1 0 
0.66 0.1 0 0.68 0.1 0 0.7 0.1 0 
0.72 0.1 0 0.74 0.1 0 0.76 0.1 0 
0.78 0.1 0 0.8 0.1 0 0.82 0.1 0 
0.84 0.1 0 0.86 0.1 0 0.88 0.1 0 
0.9 0.1 0 0.92 0.1 0 0.94 0.1 0 
0.96 0.1 0 0.98 0.1 0 1 0.1 0 
0 0.12 0 0.02 0.12 0 0.04 0.12 0 
0.06 0.12 0 0.08 0.12 0 0.1 0.12 0 
0.12 0.12 0 0.14 0.12 0 0.16 0.12 0 
0.18 0.12 0 0.2 0.12 0 0.22 0.12 0 
0.24 0.12 0 0.26 0.12 0 0.28 0.12 0 
0.3 0.12 0 0.32 0.12 0 0.34 0.12 0 
0.36 0.12 0 0.38 0.12 0 0.4 0.12 0 
0.42 0.12 0 0.44 0.12 0 0.46 0.12 0 
0.48 0.12 0 0.5 0.12 0 0.52 0.12 0 
0.54 0.12 0 0.56 0.12 0 0.58 0.12 0 
0.6 0.12 0 0.62 0.12 0 0.64 0.12 0 
0.66 0.12 0 0.68 0.12 0 0.7 0.12 0 
0.72 0.12 0 0.74 0.12 0 0.76 0.12 0 
0.78 0.12 0 0.8 0.12 0 0.82 0.12 0 
0.84 0.12 0 0.86 0.12 0 0.88 0.12 0 
0.9 0.12 0 0.92 0.12 0 0.94 0.12 0 
0.96 0.12 0 0.98 0.12 0 1 0.12 0 
0 0.14 0 0.02 0.14 0 0.04 0.14 0 
0.06 0.14 0 0.08 0.14 0 0.1 0.14 0 
0.12 0.14 0 0.14 0.14 0 0.16 0.14 0 
0.18 0.14 0 0.2 0.14 0 0.22 0.14 0 
0.24 0.14 0 0.26 0.14 0 0.28 0.14 0 
0.3 0.14 0 0.32 0.14 0 0.34 0.14 0 
0.36 0.14 0 0.38 0.14 0 0.4 0.14 0 
0.42 0.14 0 0.44 0.14 0 0.46 0.14 0 
0.48 0.14 0 0.5 0.14 0 0.52 0.14 0 
0.54 0.14 0 0.56 0.14 0 0.58 0.14 0 
0.6 0.14 0 0.62 0.14 0 0.64 0.14 0 
0.66 0.14 0 0.68 0.14 0 0.7 0.14 0 
0.72 0.14 0 0.74 0.14 0 0.76 0.14 0 
0.78 0.14 0 0.8 0.14 0 0.82 0.14 0 
0.84 0.14 0 0.86 0.14 0 0.88 0.14 0 
0.9 0.14 0 0.92 0.14 0 0.94 0.14 0 
0.96 0.14 0 0.98 0.14 0 1 0.14 0 
0 0.16 0 0.02 0.16 0 0.04 0.16 0 
0.06 0.16 0 0.08 0.16 0 0.1 0.16 0 
0.12 0.16 0 0.14 0.16 0 0.16 0.16 0 
0.18 0.16 0 0.2 0.16 0 0.22 0.16 0 
0.24 0.16 0 0.26 0.16 0 0.28 0.16 0 
0.3 0.16 0 0.32 0.16 0 0.34 0.16 0 
0.36 0.16 0 0.38 0.16 0 0.4 0.16 0 
0.42 0.16 0 0.44 0.16 0 0.46 0.16 0 
0.48 0.16 0 0.5 0.16 0 0.52 0.16 0 
0.54 0.16 0 0.56 0.16 0 0.58 0.16 0 
0.6 0.16 0 0.62 0.16 0 0.64 0.16 0 
0.66 0.16 0 0.68 0.16 0 0.7 0.16 0 
0.72 0.16 0 0.74 0.16 0 0.76 0.16 0 
0.78 0.16 0 0.8 0.16 0 0.82 0.16 0 
0.84 0.16 0 0.86 0.16 0 0.88 0.16 0 
0.9 0.16 0 0.92 0.16 0 0.94 0.16 0 
0.96 0.16 0 0.98 0.16 0 1 0.16 0 
0 0.18 0 0.02 0.18 0 0.04 0.18 0 
0.06 0.18 0 0.08 0.18 0 0.1 0.18 0 
0.12 0.18 0 0.14 0.18 0 0.16 0.18 0 
0.18 0.18 0 0.2 0.18 0 0.22 0.18 0 
0.24 0.18 0 0.26 0.18 0 0.28 0.18 0 
0.3 0.18 0 0.32 0.18 0 0.34 0.18 0 
0.36 0.18 0 0.38 0.18 0 0.4 0.18 0 
0.42 0.18 0 0.44 0.18 0 0.46 0.18 0 
0.48 0.18 0 0.5 0.18 0 0.52 0.18 0 
0.54 0.18 0 0.56 0.18 0 0.58 0.18 0 
0.6 0.18 0 0.62 0.18 0 0.64 0.18 0 
0.66 0.18 0 0.68 0.18 0 0.7 0.18 0 
0.72 0.18 0 0.74 0.18 0 0.76 0.18 0 
0.78 0.18 0 0.8 0.18 0 0.82 0.18 0 
0.84 0.18 0 0.86 0.18 0 0.88 0.18 0 
0.9 0.18 0 0.92 0.18 0 0.94 0.18 0 
0.96 0.18 0 0.98 0.18 0 1 0.18 0 
0 0.2 0 0.02 0.2 0 0.04 0.2 0 
0.06 0.2 0 0.08 0.2 0 0.1 0.2 0 
0.12 0.2 0 0.14 0.2 0 0.16 0.2 0 
0.18 0.2 0 0.2 0.2 0 0.22 0.2 0 
0.24 0.2 0 0.26 0.2 0 0.28 0.2 0 
0.3 0.2 0 0.32 0.2 0 0.34 0.2 0 
0.36 0.2 0 0.38 0.2 0 0.4 0.2 0 
0.42 0.2 0 0.44 0.2 0 0.46 0.2 0 
0.48 0.2 0 0.5 0.2 0 0.52 0.2 0 
0.54 0.2 0 0.56 0.2 0 0.58 0.2 0 
0.6 0.2 0 0.62 0.2 0 0.64 0.2 0 
0.66 0.2 0 0.68 0.2 0 0.7 0.2 0 
0.72 0.2 0 0.74 0.2 0 0.76 0.2 0 
0.78 0.2 0 0.8 0.2 0 0.82 0.2 0 
0.84 0.2 0 0.86 0.2 0 0.88 0.2 0 
0.9 0.2 0 0.92 0.2 0 0.94 0.2 0 
0.96 0.2 0 0.98 0.2 0 1 0.2 0 
0 0.22 0 0.02 0.22 0 0.04 0.22 0 
0.06 0.22 0 0.08 0.22 0 0.1 0.22 0 
0.12 0.22 0 0.14 0.22 0 0.16 0.22 0 
0.18 0.22 0 0.2 0.22 0 0.22 0.22 0 
0.24 0.22 0 0.26 0.22 0 0.28 0.22 0 
0.3 0.22 0 0.32 0.22 0 0.34 0.22 0 
0.36 0.22 0 0.38 0.22 0 0.4 0.22 0 
0.42 0.22 0 0.44 0.22 0 0.46 0.22 0 
0.48 0.22 0 0.5 0.22 0 0.52 0.22 0 
0.54 0.22 0 0.56 0.22 0 0.58 0.22 0 
0.6 0.22 0 0.62 0.22 0 0.64 0.22 0 
0.66 0.22 0 0.68 0.22 0 0.7 0.22 0 
0.72 0.22 0 0.74 0.22 0 0.76 0.22 0 
0.78 0.22 0 0.8 0.22 0 0.82 0.22 0 
0.84 0.22 0 0.86 0.22 0 0.88 0.22 0 
0.9 0.22 0 0.92 0.22 0 0.94 0.22 0 
0.96 0.22 0 0.98 0.22 0 1 0.22 0 
0 0.24 0 0.02 0.24 0 0.04 0.24 0 
0.06 0.24 0 0.08 0.24 0 0.1 0.24 0 
0.12 0.24 0 0.14 0.24 0 0.16 0.24 0 
0.18 0.24 0 0.2 0.24 0 0.22 0.24 0 
0.24 0.24 0 0.26 0.24 0 0.28 0.24 0 
0.3 0.24 0 0.32 0.24 0 0.34 0.24 0 
0.36 0.24 0 0.38 0.24 0 0.4 0.24 0 
0.42 0.24 0 0.44 0.24 0 0.46 0.24 0 
0.48 0.24 0 0.5 0.24 0 0.52 0.24 0 
0.54 0.24 0 0.56 0.24 0 0.58 0.24 0 
0.6 0.24 0 0.62 0.24 0 0.64 0.24 0 
0.66 0.24 0 0.68 0.24 0 0.7 0.24 0 
0.72 0.24 0 0.74 0.24 0 0.76 0.24 0 
0.78 0.24 0 0.8 0.24 0 0.82 0.24 0 
0.84 0.24 0 0.86 0.24 0 0.88 0.24 0 
0.9 0.24 0 0.92 0.24 0 0.94 0.24 0 
0.96 0.24 0 0.98 0.24 0 1 0.24 0 
0 0.26 0 0.02 0.26 0 0.04 0.26 0 
0.06 0.26 0 0.08 0.26 0 0.1 0.26 0 
0.12 0.26 0 0.14 0.26 0 0.16 0.26 0 
0.18 0.26 0 0.2 0.26 0 0.22 0.26 0 
0.24 0.26 0 0.26 0.26 0 0.28 0.26 0 
0.3 0.26 0 0.32 0.26 0 0.34 0.26 0 
0.36 0.26 0 0.38 0.26 0 0.4 0.26 0 
0.42 0.26 0 0.44 0.26 0 0.46 0.26 0 
0.48 0.26 0 0.5 0.26 0 0.52 0.26 0 
0.54 0.26 0 0.56 0.26 0 0.58 0.26 0 
0.6 0.26 0 0.62 0.26 0 0.64 0.26 0 
0.66 0.26 0 0.68 0.26 0 0.7 0.26 0 
0.72 0.26 0 0.74 0.26 0 0.76 0.26 0 
0.78 0.26 0 0.8 0.26 0 0.82 0.26 0 
0.84 0.26 0 0.86 0.26 0 0.88 0.26 0 
0.9 0.26 0 0.92 0.26 0 0.94 0.26 0 
0.96 0.26 0 0.98 0.26 0 1 0.26 0 
0 0.28 0 0.02 0.28 0 0.04 0.28 0 
0.06 0.28 0 0.08 0.28 0 0.1 0.28 0 
0.12 0.28 0 0.14 0.28 0 0.16 0.28 0 
0.18 0.28 0 0.2 0.28 0 0.22 0.28 0 
0.24 0.28 0 0.26 0.28 0 0.28 0.28 0 
0.3 0.28 0 0.32 0.28 0 0.34 0.28 0 
0.36 0.28 0 0.38 0.28 0 0.4 0.28 0 
0.42 0.28 0 0.44 0.28 0 0.46 0.28 0 
0.48 0.28 0 0.5 0.28 0 0.52 0.28 0 
0.54 0.28 0 0.56 0.28 0 0.58 0.28 0 
0.6 0.28 0 0.62 0.28 0 0.64 0.28 0 
0.66 0.28 0 0.68 0.28 0 0.7 0.28 0 
0.72 0.28 0 0.74 0.28 0 0.76 0.28 0 
0.78 0.28 0 0.8 0.28 0 0.82 0.28 0 
0.84 0.28 0 0.86 0.28 0 0.88 0.28 0 
0.9 0.28 0 0.92 0.28 0 0.94 0.28 0 
0.96 0.28 0 0.98 0.28 0 1 0.28 0 
0 0.3 0 0.02 0.3 0 0.04 0.3 0 
0.06 0.3 0 0.08 0.3 0 0.1 0.3 0 
0.12 0.3 0 0.14 0.3 0 0.16 0.3 0 
0.18 0.3 0 0.2 0.3 0 0.22 0.3 0 
0.24 0.3 0 0.26 0.3 0 0.28 0.3 0 
0.3 0.3 0 0.32 0.3 0 0.34 0.3 0 
0.36 0.3 0 0.38 0.3 0 0.4 0.3 0 
0.42 0.3 0 0.44 0.3 0 0.46 0.3 0 
0.48 0.3 0 0.5 0.3 0 0.52 0.3 0 
0.54 0.3 0 0.56 0.3 0 0.58 0.3 0 
0.6 0.3 0 0.62 0.3 0 0.64 0.3 0 
0.66 0.3 0 0.68 0.3 0 0.7 0.3 0 
0.72 0.3 0 0.74 0.3 0 0.76 0.3 0 
0.78 0.3 0 0.8 0.3 0 0.82 0.3 0 
0.84 0.3 0 0.86 0.3 0 0.88 0.3 0 
0.9 0.3 0 0.92 0.3 0 0.94 0.3 0 
0.96 0.3 0 0.98 0.3 0 1 0.3 0 
0 0.32 0 0.02 0.32 0 0.04 0.32 0 
0.06 0.32 0 0.08 0.32 0 0.1 0.32 0 
0.12 0.32 0 0.14 0.32 0 0.16 0.32 0 
0.18 0.32 0 0.2 0.32 0 0.22 0.32 0 
0.24 0.32 0 0.26 0.32 0 0.28 0.32 0 
0.3 0.32 0 0.32 0.32 0 0.34 0.32 0 
0.36 0.32 0 0.38 0.32 0 0.4 0.32 0 
0.42 0.32 0 0.44 0.32 0 0.46 0.32 0 
0.48 0.32 0 0.5 0.32 0 0.52 0.32 0 
0.54 0.32 0 0.56 0.32 0 0.58 0.32 0 
[...]
CELL_DATA 2500
FIELD FieldData 1
pressure 1 2500 double
0.0061831172323 0.0061188688479 0.0059296142224 0.0056538320762 0.0053328543203 0.0050011166623 0.0046846235172 0.0044018216973 0.0041651176326 
0.0039824141518 0.0038584620016 0.0037959600559 0.0037963886245 0.0038605778202 0.0039890263382 0.0041820050031 0.0044394979472 0.0047610428168 
0.0051455264959 0.0055909773804 0.0060943764018 0.0066514940218 0.0072567523093 0.0079031095343 0.0085819659327 0.0092830874311 0.0099941830258 
0.010702057577 0.01139279627 0.012051878855 0.012664605699 0.01321662556 0.013694529863 0.014086479633 0.014382829564 0.014576712131 
0.014664545138 0.014646429949 0.014526415337 0.014312613201 0.014017166651 0.013656086415 0.013248985061 0.012818744578 0.012391149708 
0.011994388432 0.011658288764 0.01141239235 0.011280787308 0.011268379932 0.0062526022551 0.006185884368 0.0060218016884 0.0057915910596 
0.0055257277612 0.0052504200245 0.0049862922824 0.0047486288198 0.0045482917877 0.0043927759878 0.0042871607403 0.0042348745019 0.0042382529697 
0.0042988995565 0.0044178763336 0.0045957668038 0.0048326538099 0.0051280474734 0.0054807849551 0.0058889124927 0.0063495548761 0.0068587781028 
0.0074114545686 0.0080011452088 0.008620017677 0.0092588267026 0.009906013137 0.010549612948 0.01117706151 0.011775275668 0.01233107027 
0.012831644117 0.013265116783 0.013621089812 0.013891201208 0.014069639725 0.014153585689 0.01414354865 0.014043578843 0.01386133913 
0.013608035665 0.013298216736 0.01294945712 0.012581944376 0.012217964491 0.011881232528 0.011595873164 0.011384847875 0.011267322637 
0.011255962806 0.006446520223 0.0063463311192 0.0061786992246 0.0059667263682 0.0057318027444 0.0054924758683 0.0052639081108 0.0050580068918 
0.0048838732158 0.0047483272938 0.004656402733 0.0046117660327 0.0046170441049 0.0046740596897 0.0047839884144 0.0049474544269 0.0051645744398 
0.0054349516702 0.0057576184154 0.0061309307596 0.0065524277642 0.0070186747268 0.0075251137971 0.0080659456577 0.0086340644473 0.0092210682599 
0.0098158702334 0.010407503385 0.010984426209 0.011534610935 0.012045942501 0.012506676528 0.012905941658 0.013234262858 0.013484076406 
0.013650204053 0.013730253767 0.013724917598 0.013638143368 0.013477165979 0.013252394673 0.012977162734 0.012667353465 0.012340917143 
0.012017284259 0.011716660089 0.011459158312 0.01126380917 0.011147666427 0.011126166008 0.0067286750235 0.0065746224772 0.0063832329622 
0.0061685794472 0.0059442064657 0.0057224565104 0.0055140676537 0.0053280265978 0.0051715860778 0.005050402803 0.0049687568736 0.0049298041665 
0.0049358182378 0.0049883971179 0.0050886254546 0.0052371844068 0.0054343989021 0.0056802145284 0.0059741065724 0.0063149369497 0.0067007839126 
0.0071287711072 0.0075949198325 0.0080940431218 0.0086196957591 0.009164192504 0.0097168157174 0.010267374414 0.010805068567 0.011318592665 
0.011796517098 0.012227730332 0.012601926002 0.012910111238 0.013145106414 0.013302003001 0.013378545847 0.013375408906 0.013296339517 
0.013148155546 0.012940590551 0.012685993363 0.012398898155 0.01209548658 0.01179296479 0.011508877849 0.011260394316 0.011063651754 
0.01093337429 0.010883209178 0.0070622832154 0.0068433354691 0.0066135787178 0.0063799074067 0.0061500414461 0.0059317032514 0.0057320239136 
0.0055571480677 0.0054120615142 0.0053006257566 0.0052257491331 0.0051896092133 0.0051938644763 0.0052398253365 0.0053285714966 0.0054610052915 
0.0056378336331 0.0058594806521 0.0061259459137 0.0064366318547 0.0067901647424 0.0071842287896 0.0076154279358 0.008079185566 0.0085696908976 
0.0090799009981 0.009599434868 0.010118655297 0.010627261193 0.011114376662 0.011568922567 0.011980054672 0.012337650525 0.012632819992 
0.012858408216 0.01300945599 0.013083581582 0.013081250394 0.013005904991 0.012863937818 0.012664500932 0.012419160576 0.012141417147 
0.011846121284 0.011548824266 0.011265106638 0.01100993744 0.010797133385 0.010639004664 0.010546207861 0.0074142155086 0.0071242721111 
0.0068462995611 0.0065825595702 0.0063366125536 0.0061124077222 0.0059136400639 0.00574338577 0.0056040184976 0.0054973233812 0.0054246927811 
0.0053873144408 0.0053863108014 0.0054228210571 0.0054980257155 0.0056131122553 0.0057691840275 0.0059671229389 0.0062074233473 0.0064900148574 
0.0068140870441 0.0071779252798 0.0075787655389 0.0080126769081 0.0084744823929 0.0089577295387 0.0094523685681 0.0099490820302 0.010437858135 
0.010907999162 0.011348490609 0.011748443555 0.012097591385 0.012386814781 0.012608662178 0.012757828419 0.012831552484 0.012829897036 
0.012755878935 0.012615430305 0.012417183503 0.012172089392 0.011892894223 0.011593514258 0.011288357691 0.010991648439 0.010716805396 
0.010475919215 0.010279330286 0.010135191138 0.0077549638724 0.007391427583 0.0070602721687 0.0067606544516 0.0064926512563 0.0062566228776 
0.0060528143935 0.0058812373479 0.0057417606368 0.0056342852642 0.0055589014187 0.0055159839946 0.0055062268736 0.0055306290301 0.0055904390587 
0.0056870598537 0.0058219179623 0.0059963069925 0.0062112152597 0.0064671443555 0.0067639227617 0.007100520333 0.0074748729547 0.0078837304669 
0.0083225426131 0.0087853970437 0.0092625946046 0.0097449007465 0.010222423353 0.010684438173 0.011119758305 0.011517184675 0.011866018994 
0.012156612494 0.012380916058 0.012532991629 0.012609441896 0.01260971657 0.012536260079 0.012394476676 0.012192504576 0.01194080938 
0.011651625987 0.011338295154 0.011014552789 0.010693833397 0.010388641022 0.010110015864 0.0098670732425 0.009666500817 0.0080592713583 
0.0076228204575 0.007237491269 0.0068996862522 0.0066061351415 0.0063537622859 0.0061396490541 0.0059611457198 0.0058160400836 0.0057026927847 
0.0056201020211 0.0055679063957 0.0055463483485 0.0055562101539 0.0055987221892 0.00567544155 0.0057881034762 0.0059384506821 0.0061280439343 
0.0063580552756 0.0066290477141 0.0069407507166 0.0072918455321 0.0076797769294 0.0081006071811 0.0085489260428 0.0090154541991 0.0094908168193 
0.0099651191507 0.010427452658 0.010866263692 0.011269813471 0.01162671179 0.011926497349 0.012160228603 0.012321041894 0.012404629487 
0.012409590801 0.012337616351 0.012193475644 0.011984797629 0.011721653367 0.011415972572 0.011080845709 0.010729776714 0.010375954353 
0.010031598859 0.0097074110185 0.0094121012547 0.0091519082541 0.0083062750615 0.0077998126444 0.0073613443451 0.0069845086068 0.0066629274285 
0.0063905213587 0.0061617390852 0.005971763657 0.0058166555666 0.0056934175091 0.0055999991587 0.005535268452 0.0054989617859 0.0054916091164 
0.0055144259888 0.0055691706093 0.0056579697592 0.0057831178559 0.0059468511998 0.0061511002049 0.0063972274066 0.0066857641753 0.007016161875 
0.00738657326 0.0077936779528 0.0082325644794 0.0086945152573 0.009169813871 0.009648486326 0.01011932288 0.010570243263 0.010988766272 
0.011362567314 0.011680096652 0.011931220804 0.012107840899 0.012204436152 0.012218480174 0.012150683164 0.012005024962 0.011788562608 
0.011511019348 0.01118418724 0.010821198713 0.010435738294 0.010041269701 0.009650341697 0.009274006253 0.0089213363202 0.0085989745708 
0.0084782131313 0.0079052962642 0.0074152316869 0.0069991146029 0.0066478982908 0.0063529892511 0.006106617779 0.0059020643286 0.0057337777596 
0.0055974244391 0.0054899005108 0.0054093190173 0.0053549646304 0.0053272040548 0.0053273484741 0.0053574738097 0.0054202072522 0.0055184857296 
0.0056552895367 0.0058333564004 0.0060548856619 0.0063212451211 0.006632694128 0.0069881359134 0.0073849115198 0.007818648045 0.0082814089105 
0.008762957654 0.0092532046902 0.0097405585051 0.010212283489 0.010654977194 0.011055152282 0.011399896596 0.011677573302 0.011878512515 
0.011995638375 0.012024973045 0.011965962874 0.011821583414 0.011598199345 0.011305180644 0.01095430492 0.010559002726 0.01013352216 
0.0096920957815 0.0092481825579 0.0088138288679 0.0083991488677 0.0080118742345 0.0085587238721 0.0079227504756 0.0073828771401 0.0069280124491 
0.0065467749674 0.006228300417 0.005962726379 0.0057414698456 0.0055573830998 0.0054048423174 0.0052797900186 0.005179727802 0.0051036489087 
0.0050519084393 0.0050260406252 0.0050285368117 0.0050625943914 0.0051318415205 0.0052400405245 0.0053907752077 0.0055871301647 0.0058313717932 
0.0061246418145 0.0064666751383 0.0068555557592 0.0072875259385 0.0077557211593 0.0082492350313 0.0087578664408 0.0092696011026 0.0097709543652 
0.010247450483 0.01068422589 0.011066732006 0.01138150037 0.011616920241 0.011763968706 0.011816827939 0.011773325476 0.011635143396 
0.011407761451 0.011100126136 0.010724069626 0.010293533938 0.0098236802255 0.0093299744207 0.0088273335467 0.0083293906498 0.0078478944483 
0.0073922118113 0.0085321096252 0.0078365653721 0.007249320737 0.0067572536036 0.0063466985759 0.0060045140056 0.0057187263799 0.0054789121967 
0.0052764229402 0.0051045083011 0.0049583555152 0.0048350473686 0.0047334442552 0.0046540047385 0.0045985628702 0.0045700761295 0.0045723504349 
0.0046097437314 0.004686849357 0.004808162744 0.004977737023 0.0051988349331 0.0054735868445 0.005802667917 0.0061850115418 0.0066175805097 
0.0070949527437 0.0076054390585 0.0081387812942 0.0086825509297 0.0092224635713 0.0097428507627 0.010227277658 0.010659286112 0.01102322881 
0.011305144758 0.011493612877 0.011580511083 0.011561605732 0.011436903565 0.011210715981 0.010891413396 0.010490882657 0.010023737352 
0.0095063622786 0.0089558916033 0.0083892191769 0.0078221172455 0.0072685000815 0.0067398220674 0.0083836395429 0.0076326075573 0.0070012131748 
0.0064742019681 0.0060355305463 0.0056697414254 0.0053627942816 0.0051025549966 0.0048790637239 0.0046846491983 0.0045139243783 0.0043636879446 
0.0042327559257 0.0041217466304 0.0040328354175 0.0039694867926 0.0039361648949 0.0039380213654 0.0039805608332 0.0040692862422 0.004209327898 
0.0044050625984 0.0046597327302 0.0049750795384 0.005351009493 0.0057853166313 0.0062745569262 0.0068061289038 0.0073698581096 0.0079529721708 
0.0085403875607 0.0091151639552 0.0096591254337 0.010153637209 0.010580509377 0.010922980256 0.011166713949 0.011300732277 0.011318193607 
0.011216933574 0.010999697412 0.010674021148 0.010251757073 0.0097482822282 0.0091814690497 0.0085705257344 0.0079348220744 0.0072928011604 
0.0066610411308 0.0060534845912 0.0080999861534 0.0072982030921 0.0066263236081 0.006066829133 0.0056012799522 0.0052119777829 0.0048829612695 
0.0046005656598 0.0043536940202 0.0041338934241 0.0039352977401 0.0037544820725 0.0035902621765 0.003443460073 0.0033166454005 0.0032138543428 
0.003140285097 0.0031019689377 0.0031054170765 0.0031572444196 0.003263772664 0.003430618001 0.0036622725881 0.0039616934252 0.004329917027 
0.0047657221047 0.0052681265454 0.0058237280593 0.0064226304594 0.0070518430624 0.0076955406715 0.0083354828189 0.0089516201149 0.009522891522 
0.010028192975 0.010447474661 0.010762901407 0.010959989963 0.0110286223 0.010963829536 0.010766250299 0.010442192581 0.010003268364 
0.0094656207529 0.0088488153926 0.0081745105002 0.0074650420954 0.0067420566327 0.0060252928517 0.0053315683114 0.0076691987624 0.006821734878 
0.0061131161271 0.0055235826707 0.0050324089373 0.0046198033002 0.0042680335976 0.0039620313758 0.0036896539818 0.0034417263997 0.0032119463562 
0.0029967087505 0.002794883364 0.0026075625657 0.002437784859 0.0022902356586 0.0021709255524 0.0020868458169 0.0020456004101 0.0020550133709 
0.0021227117636 0.0022556872644 0.0024598432732 0.002739538632 0.003097144411 0.003532643168 0.0040477155949 0.004628809974 0.0052664882887 
0.0059477118798 0.0066560397504 0.0073719717261 0.0080735092416 0.0087369514203 0.0093379164017 0.0098525525385 0.010258876653 0.010538148773 
0.010676169047 0.010664368095 0.010500562509 0.010189267147 0.0097414962759 0.0091740434395 0.0085082962888 0.0077687043877 0.0069810607449 
0.0061707703618 0.0053612582682 0.004572623479 0.0070804368287 0.0061924815844 0.0054509211689 0.0048339001797 0.0043185491989 0.0038831018537 
0.0035081422098 0.0031772573166 0.0028773021661 0.0025984222362 0.0023339322305 0.002080113265 0.0018359634107 0.0016029186902 0.0013845524858 
0.0011862573925 0.0010149107428 0.00087852216496 0.00078585935171 0.00074604753753 0.00076813974403 0.0008606579781 0.0010311090732 0.0012854816391 
0.0016277300484 0.0020592419368 0.0025843215213 0.0031906254631 0.0038691734597 0.004607116065 0.0053876234578 0.0061900729757 0.0069905239488 
0.0077624833127 0.0084779589443 0.0091087762224 0.0096281024057 0.010012087724 0.010241497034 0.010303178117 0.010191200131 0.0099075058715 
0.0094619588166 0.0088717301113 0.0081600537613 0.0073544653208 0.0064847109624 0.0055805518193 0.0046696831014 0.0037759427606 0.0063239450505 
0.0054008933455 0.0046304214242 0.0039887199015 0.0034508739912 0.0029932141577 0.0025946971545 0.0022376194006 0.0019078939887 0.0015950570642 
0.0012921161992 0.0009953113837 0.00070382938764 0.0004194937964 0.00014644273386 -0.00010920048694 -0.00033966451688 -0.00053588035824 -0.00068785295629 
-0.00078506209165 -0.00081689854097 -0.00077313806958 -0.00064445188823 -0.00042294860957 -0.00010274370152 0.00031942308308 0.00084851239382 0.0014779615845 
0.0021976082799 0.0029953261414 0.0038542917214 0.0047530263711 0.0056657655972 0.006563163099 0.0074133459641 0.008183316417 0.0088406597503 
0.0093554731955 0.0097023818171 0.009862462563 0.0098248666479 0.0095879245893 0.0091595469623 0.0085568015016 0.0078046484204 0.0069339346099 
0.0059788585444 0.0049741931939 0.0039525735341 0.0029421147497 0.0053913616405 0.0044389799102 0.0036439393822 0.002980574306 0.0024220103825 
0.0019427614834 0.0015202481401 0.0011355704446 0.00077379182904 0.00042392149774 7.8724348742e-05 -0.00026555945995 -0.00060953606588 -0.00095099267462 
-0.0012852316335 -0.0016054004031 -0.0019028221093 -0.0021673362871 -0.0023876613582 -0.0025517899117 -0.0026474255881 -0.0026624669301 -0.0025855385581 
-0.0024065617139 -0.0021173382655 -0.0017120668292 -0.0011874923886 -0.00053939143491 0.00021913424015 0.0010774683742 0.0020193269972 0.0030227737332 
0.004060471384 0.0051002831787 0.0061062850976 0.0070402162815 0.0078633518182 0.0085387275561 0.0090335825691 0.0093218189529 0.0093862229101 
0.0092201610825 0.0088284778004 0.0082273837934 0.0074432453496 0.0065103397383 0.0054678064713 0.0043561535098 0.0032137358685 0.0020735942754 
0.0042760711519 0.0033004872825 0.0024854161559 0.0018034567864 0.0012259190671 0.00072564983365 0.00027867448689 -0.00013498325338 -0.00053101924125 
-0.00092089415127 -0.0013120610165 -0.0017082815104 -0.0021099743161 -0.0025145642817 -0.0029168189175 -0.0033091717866 -0.003682040897 -0.0040241546108 
-0.0043228991663 -0.0045647016084 -0.0047354603114 -0.0048210325491 -0.0048077842415 -0.0046832005295 -0.0044365462421 -0.0040595520383 -0.0035471016707 
-0.0028889546199 -0.0020969495994 -0.0011799778299 -0.00015326562376 0.0009613055809 0.0021352296192 0.0033338020066 0.0045170234382 0.0056410410992 
0.006660145686 0.0075292800236 0.0082069357002 0.008658224007 0.0088578201711 0.0087924154841 0.008462294589 0.0078817067335 0.0070778304865 
0.0060883306932 0.0049577377459 0.0037330850306 0.0024593596546 0.0011753150046 0.0029733651654 0.0019808831959 0.0011503455903 0.00045282723824 
-0.00014195644769 -0.00066262746728 -0.0011343990678 -0.0015782165849 -0.0020104752873 -0.0024430859705 -0.0028837299152 -0.0033362003286 -0.0038007678855 
-0.0042745368823 -0.0047517791338 -0.0052242469223 -0.0056814748552 -0.0061110849402 -0.0064991113321 -0.0068303617968 -0.0070888323148 -0.0072581893804 
-0.0073223314098 -0.0072660373029 -0.0070757099807 -0.0067402386146 -0.0062520862358 -0.0055946238266 -0.0047777029275 -0.0038073237329 -0.0026968820218 
-0.0014675143843 -0.00014830311964 0.0012239043037 0.0026052077412 0.0039460059939 0.0051930505258 0.0062921977642 0.0071917631936 0.0078462643706 
0.0082202145269 0.0082915177421 0.0080539541579 0.0075182652452 0.0067114806245 0.0056743697956 0.004457216397 0.0031144231626 0.0016986680643 
0.00025537106286 0.0014804549261 0.00047736030082 -0.00036413393195 -0.0010741821125 -0.0016843998169 -0.0022246714494 -0.002721307488 -0.0031961407629 
-0.0036662327981 -0.0041439472073 -0.0046372210718 -0.0051499230364 -0.005682230084 -0.0062309866712 -0.0067900325663 -0.0073505008864 -0.007901097008 
-0.0084283744556 -0.0089170271398 -0.0093502188882 -0.0097099712995 -0.0099776295426 -0.010134423004 -0.010162134432 -0.010043888131 -0.0097650643268 
-0.0093143266531 -0.0086735945571 -0.0078442079025 -0.0068293767263 -0.0056399990004 -0.004295640794 -0.0028251610874 -0.0012668860689 0.00033180995046 
0.0019156618148 0.0034235254347 0.004791297862 0.0059556966084 0.0068587080018 0.0074523456275 0.0077031902251 0.0075960545965 0.0071360844603 
0.0063487176258 0.0052772003739 0.0039777701922 0.0025130639028 0.00094466125599 -0.00067420436968 -0.00020350078766 -0.0012110590745 -0.0020590697735 
-0.0027785835991 -0.0034022744612 -0.0039610891469 -0.0044823059812 -0.0049885756449 -0.0054976035281 -0.0060222202453 -0.0065706611602 -0.0071469347985 
-0.0077512056949 -0.0083801515657 -0.0090272793759 -0.0096832014003 -0.010335882887 -0.01097087971 -0.011571588695 -0.01211953547 -0.01259472521 
-0.01297608045 -0.013241987716 -0.013370971031 -0.013342504804 -0.013137971063 -0.01274176645 -0.01213571866 -0.011309406231 -0.010262898298 
-0.0090034909496 -0.0075481040568 -0.0059243317354 -0.0041710425503 -0.0023383573426 -0.00048681028098 0.001314490133 0.0029908302861 0.0044660161718 
0.005667516491 0.006532272925 0.0070125859548 0.0070812682306 0.0067351382696 0.0059959851592 0.0049084250862 0.0035345823626 0.0019461554508 
0.00021498018638 -0.0015965345169 -0.002077309805 -0.0030834255262 -0.0039336406518 -0.0046595510808 -0.0052946029585 -0.0058705964178 -0.0064156437812 
-0.0069531464429 -0.0075014432393 -0.008073868207 -0.0086790287175 -0.0093211751035 -0.010000580961 -0.010713890114 -0.01145441283 -0.012212372018 
-0.012975112073 -0.013727291046 -0.014451081711 -0.015126409732 -0.015731257936 -0.01624206511 -0.0166342459 -0.016882854786 -0.016963408739 
-0.016852860179 -0.016530634018 -0.015979329099 -0.015175117262 -0.014113742969 -0.012797674707 -0.011239941229 -0.0094656124222 -0.0075128859989 
-0.005433568166 -0.0032926944069 -0.0011670274818 0.00085779438265 0.0026915885906 0.0042453933851 0.0054383657176 0.0062051909885 0.0065030548332 
0.006316980882 0.0056622937783 0.0045832300374 0.0031473231931 0.0014360328965 -0.00046708028046 -0.0024888389135 -0.0041377035507 -0.0051369032146 
-0.0059852857293 -0.0067146013443 -0.0073587460479 -0.0079501418274 -0.0085175974266 -0.0090852140903 -0.009671987115 -0.010291835222 -0.010953861175 
-0.011662707825 -0.012418923392 -0.01321928824 -0.014057083463 -0.014922301136 -0.015801809473 -0.016679494965 -0.017536409109 -0.018350950423 
-0.019099113865 -0.019754840107 -0.020290496723 -0.02067752219 -0.020887261689 -0.020892024394 -0.020666414498 -0.020189133111 -0.019429518897 
-0.018374115712 -0.017019337657 -0.015373002601 -0.013456234037 -0.011305091148 -0.0089716607906 -0.0065242934413 -0.0040466325173 -0.0016350960817 
0.00060545338059 0.0025679434288 0.0041510350112 0.0052681800391 0.0058567356342 0.0058856581527 0.0053600867375 0.004321295735 0.0028411555733 
0.0010113268908 -0.0010713790707 -0.0033211879867 -0.0063794351007 -0.0073669632447 -0.0082099422541 -0.0089398184148 -0.0095905704584 -0.010194997586 
-0.01078248588 -0.011377829103 -0.012000760429 -0.012665927561 -0.013383111884 -0.01415755158 -0.014990277906 -0.015878412512 -0.016815402696 
-0.017791192405 -0.018792341494 -0.019802115658 -0.020800575699 -0.021764698589 -0.022668565032 -0.02348364953 -0.024179249883 -0.024723093551 
-0.025082159048 -0.025223755451 -0.025116930352 -0.0247344024 -0.024045166705 -0.023020223578 -0.021649029231 -0.019932900373 -0.017887500918 
-0.01554507541 -0.012956259417 -0.010191092841 -0.0073387972591 -0.0045058525704 -0.0018119468709 0.00061647894229 0.0026550718954 0.004192304017 