# vtk DataFile Version 4.1
vtk output
ASCII
DATASET STRUCTURED_GRID
DIMENSIONS 51 51 1
POINTS 2601 float
0 0 0 0.02 0 0 0.04 0 0 
0.06 0 0 0.08 0 0 0.1 0 0 
0.12 0 0 0.14 0 0 0.16 0 0 
0.18 0 0 0.2 0 0 0.22 0 0 
0.24 0 0 0.26 0 0 0.28 0 0 
0.3 0 0 0.32 0 0 0.34 0 0 
0.36 0 0 0.38 0 0 0.4 0 0 
0.42 0 0 0.44 0 0 0.46 0 0 
0.48 0 0 0.5 0 0 0.52 0 0 
0.54 0 0 0.56 0 0 0.58 0 0 
0.6 0 0 0.62 0 0 0.64 0 0 
0.66 0 0 0.68 0 0 0.7 0 0 
0.72 0 0 0.74 0 0 0.76 0 0 
0.78 0 0 0.8 0 0 0.82 0 0 
0.84 0 0 0.86 0 0 0.88 0 0 
0.9 0 0 0.92 0 0 0.94 0 0 
0.96 0 0 0.98 0 0 1 0 0 
0 0.02 0 0.02 0.02 0 0.04 0.02 0 
0.06 0.02 0 0.08 0.02 0 0.1 0.02 0 
0.12 0.02 0 0.14 0.02 0 0.16 0.02 0 
0.18 0.02 0 0.2 0.02 0 0.22 0.02 0 
0.24 0.02 0 0.26 0.02 0 0.28 0.02 0 
0.3 0.02 0 0.32 0.02 0 0.34 0.02 0 
0.36 0.02 0 0.38 0.02 0 0.4 0.02 0 
0.42 0.02 0 0.44 0.02 0 0.46 0.02 0 
0.48 0.02 0 0.5 0.02 0 0.52 0.02 0 
0.54 0.02 0 0.56 0.02 0 0.58 0.02 0 
0.6 0.02 0 0.62 0.02 0 0.64 0.02 0 
0.66 0.02 0 0.68 0.02 0 0.7 0.02 0 
0.72 0.02 0 0.74 0.02 0 0.76 0.02 0 
0.78 0.02 0 0.8 0.02 0 0.82 0.02 0 
0.84 0.02 0 0.86 0.02 0 0.88 0.02 0 
0.9 0.02 0 0.92 0.02 0 0.94 0.02 0 
0.96 0.02 0 0.98 0.02 0 1 0.02 0 
0 0.04 0 0.02 0.04 0 0.04 0.04 0 
0.06 0.04 0 0.08 0.04 0 0.1 0.04 0 
0.12 0.04 0 0.14 0.04 0 0.16 0.04 0 
0.18 0.04 0 0.2 0.04 0 0.22 0.04 0 
0.24 0.04 0 0.26 0.04 0 0.28 0.04 0 
0.3 0.04 0 0.32 0.04 0 0.34 0.04 0 
0.36 0.04 0 0.38 0.04 0 0.4 0.04 0 
0.42 0.04 0 0.44 0.04 0 0.46 0.04 0 
0.48 0.04 0 0.5 0.04 0 0.52 0.04 0 
0.54 0.04 0 0.56 0.04 0 0.58 0.04 0 
0.6 0.04 0 0.62 0.04 0 0.64 0.04 0 
0.66 0.04 0 0.68 0.04 0 0.7 0.04 0 
0.72 0.04 0 0.74 0.04 0 0.76 0.04 0 
0.78 0.04 0 0.8 0.04 0 0.82 0.04 0 
0.84 0.04 0 0.86 0.04 0 0.88 0.04 0 
0.9 0.04 0 0.92 0.04 0 0.94 0.04 0 
0.96 0.04 0 0.98 0.04 0 1 0.04 0 
0 0.06 0 0.02 0.06 0 0.04 0.06 0 
0.06 0.06 0 0.08 0.06 0 0.1 0.06 0 
0.12 0.06 0 0.14 0.06 0 0.16 0.06 0 
0.18 0.06 0 0.2 0.06 0 0.22 0.06 0 
0.24 0.06 0 0.26 0.06 0 0.28 0.06 0 
0.3 0.06 0 0.32 0.06 0 0.34 0.06 0 
0.36 0.06 0 0.38 0.06 0 0.4 0.06 0 
0.42 0.06 0 0.44 0.06 0 0.46 0.06 0 
0.48 0.06 0 0.5 0.06 0 0.52 0.06 0 
0.54 0.06 0 0.56 0.06 0 0.58 0.06 0 
0.6 0.06 0 0.62 0.06 0 0.64 0.06 0 
0.66 0.06 0 0.68 0.06 0 0.7 0.06 0 
0.72 0.06 0 0.74 0.06 0 0.76 0.06 0 
0.78 0.06 0 0.8 0.06 0 0.82 0.06 0 
0.84 0.06 0 0.86 0.06 0 0.88 0.06 0 
0.9 0.06 0 0.92 0.06 0 0.94 0.06 0 
0.96 0.06 0 0.98 0.06 0 1 0.06 0 
0 0.08 0 0.02 0.08 0 0.04 0.08 0 
0.06 0.08 0 0.08 0.08 0 0.1 0.08 0 
0.12 0.08 0 0.14 0.08 0 0.16 0.08 0 
0.18 0.08 0 0.2 0.08 0 0.22 0.08 0 
0.24 0.08 0 0.26 0.08 0 0.28 0.08 0 
0.3 0.08 0 0.32 0.08 0 0.34 0.08 0 
0.36 0.08 0 0.38 0.08 0 0.4 0.08 0 
0.42 0.08 0 0.44 0.08 0 0.46 0.08 0 
0.48 0.08 0 0.5 0.08 0 0.52 0.08 0 
0.54 0.08 0 0.56 0.08 0 0.58 0.08 0 
0.6 0.08 0 0.62 0.08 0 0.64 0.08 0 
0.66 0.08 0 0.68 0.08 0 0.7 0.08 0 
0.72 0.08 0 0.74 0.08 0 0.76 0.08 0 
0.78 0.08 0 0.8 0.08 0 0.82 0.08 0 
0.84 0.08 0 0.86 0.08 0 0.88 0.08 0 
0.9 0.08 0 0.92 0.08 0 0.94 0.08 0 
0.96 0.08 0 0.98 0.08 0 1 0.08 0 
0 0.1 0 0.02 0.1 0 0.04 0.1 0 
0.06 0.1 0 0.08 0.1 0 0.1 0.1 0 
0.12 0.1 0 0.14 0.1 0 0.16 0.1 0 
0.18 0.1 0 0.2 0.1 0 0.22 0.1 0 
0.24 0.1 0 0.26 0.1 0 0.28 0.1 0 
0.3 0.1 0 0.32 0.1 0 0.34 0.1 0 
0.36 0.1 0 0.38 0.1 0 0.4 0.1 0 
0.42 0.1 0 0.44 0.1 0 0.46 0.1 0 
0.48 0.1 0 0.5 0.1 0 0.52 0.1 0 
0.54 0.1 0 0.56 0.1 0 0.58 0.1 0 
0.6 0.1 0 0.62 0.1 0 0.64 0.1 0 
0.66 0.1 0 0.68 0.1 0 0.7 0.1 0 
0.72 0.1 0 0.74 0.1 0 0.76 0.1 0 
0.78 0.1 0 0.8 0.1 0 0.82 0.1 0 
0.84 0.1 0 0.86 0.1 0 0.88 0.1 0 
0.9 0.1 0 0.92 0.1 0 0.94 0.1 0 
0.96 0.1 0 0.98 0.1 0 1 0.1 0 
0 0.12 0 0.02 0.12 0 0.04 0.12 0 
0.06 0.12 0 0.08 0.12 0 0.1 0.12 0 
0.12 0.12 0 0.14 0.12 0 0.16 0.12 0 
0.18 0.12 0 0.2 0.12 0 0.22 0.12 0 
0.24 0.12 0 0.26 0.12 0 0.28 0.12 0 
0.3 0.12 0 0.32 0.12 0 0.34 0.12 0 
0.36 0.12 0 0.38 0.12 0 0.4 0.12 0 
0.42 0.12 0 0.44 0.12 0 0.46 0.12 0 
0.48 0.12 0 0.5 0.12 0 0.52 0.12 0 
0.54 0.12 0 0.56 0.12 0 0.58 0.12 0 
0.6 0.12 0 0.62 0.12 0 0.64 0.12 0 
0.66 0.12 0 0.68 0.12 0 0.7 0.12 0 
0.72 0.12 0 0.74 0.12 0 0.76 0.12 0 
0.78 0.12 0 0.8 0.12 0 0.82 0.12 0 
0.84 0.12 0 0.86 0.12 0 0.88 0.12 0 
0.9 0.12 0 0.92 0.12 0 0.94 0.12 0 
0.96 0.12 0 0.98 0.12 0 1 0.12 0 
0 0.14 0 0.02 0.14 0 0.04 0.14 0 
0.06 0.14 0 0.08 0.14 0 0.1 0.14 0 
0.12 0.14 0 0.14 0.14 0 0.16 0.14 0 
0.18 0.14 0 0.2 0.14 0 0.22 0.14 0 
0.24 0.14 0 0.26 0.14 0 0.28 0.14 0 
0.3 0.14 0 0.32 0.14 0 0.34 0.14 0 
0.36 0.14 0 0.38 0.14 0 0.4 0.14 0 
0.42 0.14 0 0.44 0.14 0 0.46 0.14 0 
0.48 0.14 0 0.5 0.14 0 0.52 0.14 0 
0.54 0.14 0 0.56 0.14 0 0.58 0.14 0 
0.6 0.14 0 0.62 0.14 0 0.64 0.14 0 
0.66 0.14 0 0.68 0.14 0 0.7 0.14 0 
0.72 0.14 0 0.74 0.14 0 0.76 0.14 0 
0.78 0.14 0 0.8 0.14 0 0.82 0.14 0 
0.84 0.14 0 0.86 0.14 0 0.88 0.14 0 
0.9 0.14 0 0.92 0.14 0 0.94 0.14 0 
0.96 0.14 0 0.98 0.14 0 1 0.14 0 
0 0.16 0 0.02 0.16 0 0.04 0.16 0 
0.06 0.16 0 0.08 0.16 0 0.1 0.16 0 
0.12 0.16 0 0.14 0.16 0 0.16 0.16 0 
0.18 0.16 0 0.2 0.16 0 0.22 0.16 0 
0.24 0.16 0 0.26 0.16 0 0.28 0.16 0 
0.3 0.16 0 0.32 0.16 0 0.34 0.16 0 
0.36 0.16 0 0.38 0.16 0 0.4 0.16 0 
0.42 0.16 0 0.44 0.16 0 0.46 0.16 0 
0.48 0.16 0 0.5 0.16 0 0.52 0.16 0 
0.54 0.16 0 0.56 0.16 0 0.58 0.16 0 
0.6 0.16 0 0.62 0.16 0 0.64 0.16 0 
0.66 0.16 0 0.68 0.16 0 0.7 0.16 0 
0.72 0.16 0 0.74 0.16 0 0.76 0.16 0 
0.78 0.16 0 0.8 0.16 0 0.82 0.16 0 
0.84 0.16 0 0.86 0.16 0 0.88 0.16 0 
0.9 0.16 0 0.92 0.16 0 0.94 0.16 0 
0.96 0.16 0 0.98 0.16 0 1 0.16 0 
0 0.18 0 0.02 0.18 0 0.04 0.18 0 
0.06 0.18 0 0.08 0.18 0 0.1 0.18 0 
0.12 0.18 0 0.14 0.18 0 0.16 0.18 0 
0.18 0.18 0 0.2 0.18 0 0.22 0.18 0 
0.24 0.18 0 0.26 0.18 0 0.28 0.18 0 
0.3 0.18 0 0.32 0.18 0 0.34 0.18 0 
0.36 0.18 0 0.38 0.18 0 0.4 0.18 0 
0.42 0.18 0 0.44 0.18 0 0.46 0.18 0 
0.48 0.18 0 0.5 0.18 0 0.52 0.18 0 
0.54 0.18 0 0.56 0.18 0 0.58 0.18 0 
0.6 0.18 0 0.62 0.18 0 0.64 0.18 0 
0.66 0.18 0 0.68 0.18 0 0.7 0.18 0 
0.72 0.18 0 0.74 0.18 0 0.76 0.18 0 
0.78 0.18 0 0.8 0.18 0 0.82 0.18 0 
0.84 0.18 0 0.86 0.18 0 0.88 0.18 0 
0.9 0.18 0 0.92 0.18 0 0.94 0.18 0 
0.96 0.18 0 0.98 0.18 0 1 0.18 0 
0 0.2 0 0.02 0.2 0 0.04 0.2 0 
0.06 0.2 0 0.08 0.2 0 0.1 0.2 0 
0.12 0.2 0 0.14 0.2 0 0.16 0.2 0 
0.18 0.2 0 0.2 0.2 0 0.22 0.2 0 
0.24 0.2 0 0.26 0.2 0 0.28 0.2 0 
0.3 0.2 0 0.32 0.2 0 0.34 0.2 0 
0.36 0.2 0 0.38 0.2 0 0.4 0.2 0 
0.42 0.2 0 0.44 0.2 0 0.46 0.2 0 
0.48 0.2 0 0.5 0.2 0 0.52 0.2 0 
0.54 0.2 0 0.56 0.2 0 0.58 0.2 0 
0.6 0.2 0 0.62 0.2 0 0.64 0.2 0 
0.66 0.2 0 0.68 0.2 0 0.7 0.2 0 
0.72 0.2 0 0.74 0.2 0 0.76 0.2 0 
0.78 0.2 0 0.8 0.2 0 0.82 0.2 0 
0.84 0.2 0 0.86 0.2 0 0.88 0.2 0 
0.9 0.2 0 0.92 0.2 0 0.94 0.2 0 
0.96 0.2 0 0.98 0.2 0 1 0.2 0 
0 0.22 0 0.02 0.22 0 0.04 0.22 0 
0.06 0.22 0 0.08 0.22 0 0.1 0.22 0 
0.12 0.22 0 0.14 0.22 0 0.16 0.22 0 
0.18 0.22 0 0.2 0.22 0 0.22 0.22 0 
0.24 0.22 0 0.26 0.22 0 0.28 0.22 0 
0.3 0.22 0 0.32 0.22 0 0.34 0.22 0 
0.36 0.22 0 0.38 0.22 0 0.4 0.22 0 
0.42 0.22 0 0.44 0.22 0 0.46 0.22 0 
0.48 0.22 0 0.5 0.22 0 0.52 0.22 0 
0.54 0.22 0 0.56 0.22 0 0.58 0.22 0 
0.6 0.22 0 0.62 0.22 0 0.64 0.22 0 
0.66 0.22 0 0.68 0.22 0 0.7 0.22 0 
0.72 0.22 0 0.74 0.22 0 0.76 0.22 0 
0.78 0.22 0 0.8 0.22 0 0.82 0.22 0 
0.84 0.22 0 0.86 0.22 0 0.88 0.22 0 
0.9 0.22 0 0.92 0.22 0 0.94 0.22 0 
0.96 0.22 0 0.98 0.22 0 1 0.22 0 
0 0.24 0 0.02 0.24 0 0.04 0.24 0 
0.06 0.24 0 0.08 0.24 0 0.1 0.24 0 
0.12 0.24 0 0.14 0.24 0 0.16 0.24 0 
0.18 0.24 0 0.2 0.24 0 0.22 0.24 0 
0.24 0.24 0 0.26 0.24 0 0.28 0.24 0 
0.3 0.24 0 0.32 0.24 0 0.34 0.24 0 
0.36 0.24 0 0.38 0.24 0 0.4 0.24 0 
0.42 0.24 0 0.44 0.24 0 0.46 0.24 0 
0.48 0.24 0 0.5 0.24 0 0.52 0.24 0 
0.54 0.24 0 0.56 0.24 0 0.58 0.24 0 
0.6 0.24 0 0.62 0.24 0 0.64 0.24 0 
0.66 0.24 0 0.68 0.24 0 0.7 0.24 0 
0.72 0.24 0 0.74 0.24 0 0.76 0.24 0 
0.78 0.24 0 0.8 0.24 0 0.82 0.24 0 
0.84 0.24 0 0.86 0.24 0 0.88 0.24 0 
0.9 0.24 0 0.92 0.24 0 0.94 0.24 0 
0.96 0.24 0 0.98 0.24 0 1 0.24 0 
0 0.26 0 0.02 0.26 0 0.04 0.26 0 
0.06 0.26 0 0.08 0.26 0 0.1 0.26 0 
0.12 0.26 0 0.14 0.26 0 0.16 0.26 0 
0.18 0.26 0 0.2 0.26 0 0.22 0.26 0 
0.24 0.26 0 0.26 0.26 0 0.28 0.26 0 
0.3 0.26 0 0.32 0.26 0 0.34 0.26 0 
0.36 0.26 0 0.38 0.26 0 0.4 0.26 0 
0.42 0.26 0 0.44 0.26 0 0.46 0.26 0 
0.48 0.26 0 0.5 0.26 0 0.52 0.26 0 
0.54 0.26 0 0.56 0.26 0 0.58 0.26 0 
0.6 0.26 0 0.62 0.26 0 0.64 0.26 0 
0.66 0.26 0 0.68 0.26 0 0.7 0.26 0 
0.72 0.26 0 0.74 0.26 0 0.76 0.26 0 
0.78 0.26 0 0.8 0.26 0 0.82 0.26 0 
0.84 0.26 0 0.86 0.26 0 0.88 0.26 0 
0.9 0.26 0 0.92 0.26 0 0.94 0.26 0 
0.96 0.26 0 0.98 0.26 0 1 0.26 0 
0 0.28 0 0.02 0.28 0 0.04 0.28 0 
0.06 0.28 0 0.08 0.28 0 0.1 0.28 0 
0.12 0.28 0 0.14 0.28 0 0.16 0.28 0 
0.18 0.28 0 0.2 0.28 0 0.22 0.28 0 
0.24 0.28 0 0.26 0.28 0 0.28 0.28 0 
0.3 0.28 0 0.32 0.28 0 0.34 0.28 0 
0.36 0.28 0 0.38 0.28 0 0.4 0.28 0 
0.42 0.28 0 0.44 0.28 0 0.46 0.28 0 
0.48 0.28 0 0.5 0.28 0 0.52 0.28 0 
0.54 0.28 0 0.56 0.28 0 0.58 0.28 0 
0.6 0.28 0 0.62 0.28 0 0.64 0.28 0 
0.66 0.28 0 0.68 0.28 0 0.7 0.28 0 
0.72 0.28 0 0.74 0.28 0 0.76 0.28 0 
0.78 0.28 0 0.8 0.28 0 0.82 0.28 0 
0.84 0.28 0 0.86 0.28 0 0.88 0.28 0 
0.9 0.28 0 0.92 0.28 0 0.94 0.28 0 
0.96 0.28 0 0.98 0.28 0 1 0.28 0 
0 0.3 0 0.02 0.3 0 0.04 0.3 0 
0.06 0.3 0 0.08 0.3 0 0.1 0.3 0 
0.12 0.3 0 0.14 0.3 0 0.16 0.3 0 
0.18 0.3 0 0.2 0.3 0 0.22 0.3 0 
0.24 0.3 0 0.26 0.3 0 0.28 0.3 0 
0.3 0.3 0 0.32 0.3 0 0.34 0.3 0 
0.36 0.3 0 0.38 0.3 0 0.4 0.3 0 
0.42 0.3 0 0.44 0.3 0 0.46 0.3 0 
0.48 0.3 0 0.5 0.3 0 0.52 0.3 0 
0.54 0.3 0 0.56 0.3 0 0.58 0.3 0 
0.6 0.3 0 0.62 0.3 0 0.64 0.3 0 
0.66 0.3 0 0.68 0.3 0 0.7 0.3 0 
0.72 0.3 0 0.74 0.3 0 0.76 0.3 0 
0.78 0.3 0 0.8 0.3 0 0.82 0.3 0 
0.84 0.3 0 0.86 0.3 0 0.88 0.3 0 
0.9 0.3 0 0.92 0.3 0 0.94 0.3 0 
0.96 0.3 0 0.98 0.3 0 1 0.3 0 
0 0.32 0 0.02 0.32 0 0.04 0.32 0 
0.06 0.32 0 0.08 0.32 0 0.1 0.32 0 
0.12 0.32 0 0.14 0.32 0 0.16 0.32 0 
0.18 0.32 0 0.2 0.32 0 0.22 0.32 0 
0.24 0.32 0 0.26 0.32 0 0.28 0.32 0 
0.3 0.32 0 0.32 0.32 0 0.34 0.32 0 
0.36 0.32 0 0.38 0.32 0 0.4 0.32 0 
0.42 0.32 0 0.44 0.32 0 0.46 0.32 0 
0.48 0.32 0 0.5 0.32 0 0.52 0.32 0 
0.54 0.32 0 0.56 0.32 0 0.58 0.32 0 
[...]
CELL_DATA 2500
FIELD FieldData 1
pressure 1 2500 double
0.0055319694928 0.0054712708331 0.0052902586597 0.005026515395 0.0047207595803 0.0044069547644 0.0041104294089 0.0038485772191 0.0036325381938 
0.0034691106454 0.0033624277243 0.0033151392282 0.0033290667401 0.0034054663205 0.0035450847962 0.0037481501089 0.0040143548609 0.0043428301664 
0.0047320858856 0.0051799031239 0.0056831843451 0.0062377807872 0.0068383211159 0.007478062105 0.0081487739253 0.0088406605883 0.0095419904653 
0.010240091234 0.01092160968 0.011572609324 0.012178971526 0.012726892459 0.013203444978 0.013597174262 0.013898694126 0.014101249241 
0.014201207212 0.01419844766 0.014096624754 0.013903290884 0.013629881347 0.013291573843 0.012907051585 0.012498203885 0.012089795723 
0.011709022161 0.011384815569 0.011146054697 0.011016702513 0.011002725836 0.0056016417402 0.0055377386905 0.0053804053548 0.0051602756736 
0.0049075446355 0.0046479729737 0.0044013778236 0.0041819902993 0.0039996909494 0.0038613495984 0.0037718532054 0.0037347280136 0.0037524602649 
0.0038266706248 0.0039582466072 0.0041474608083 0.0043940537432 0.0046972534809 0.005055722651 0.0054674447646 0.0059295739353 0.0064382740843 
0.006988570085 0.007574228591 0.0081876836432 0.0088200250739 0.0094602196114 0.010096733327 0.010717499051 0.01130995171 0.011861419566 
0.012359583143 0.01279298482 0.013151563459 0.013427184921 0.013614136345 0.01370955107 0.013713736346 0.013630383898 0.013466651106 
0.013233109223 0.012943566899 0.012614785424 0.012266099746 0.011918944685 0.011596233153 0.011321405143 0.011116922637 0.011001769858 
0.010988818672 0.0057895674032 0.0056923439884 0.005530443586 0.0053271507114 0.005103938224 0.0048789200292 0.0046663702152 0.0044772173448 
0.0043198472486 0.0042007503228 0.0041248943609 0.0040959262691 0.0041163457224 0.0041877181524 0.0043109055693 0.004486253294 0.0047136851882 
0.0049926973223 0.0053222710144 0.005700737691 0.0061256257948 0.006593511874 0.007099891507 0.007639082826 0.0082041761232 0.0087870463689 
0.0093771441235 0.0099638595465 0.010536102263 0.011082315095 0.011590851527 0.012050411123 0.012450517311 0.012782014825 0.013037560113 
0.013212073617 0.013303122818 0.013311210657 0.013239949147 0.013096103252 0.012889498457 0.01263279795 0.012341160576 0.012031792306 
0.011723397764 0.011435514004 0.011187681292 0.010998471104 0.010884617384 0.010861272628 0.0060592383116 0.0059085555304 0.0057227809713 
0.0055170086119 0.0053047555831 0.0050975394163 0.0049049662354 0.0047351159582 0.0045948005132 0.0044896020019 0.0044238308872 0.0044005727289 
0.0044218830464 0.0044890705969 0.004602960353 0.0047640546803 0.0049725692807 0.0052283676866 0.005530835061 0.0058787276507 0.0062700214149 
0.0067017726125 0.0071699992667 0.0076695930969 0.0081942734539 0.0087365973449 0.0092863978998 0.0098337721451 0.01036833273 0.010879213846 
0.011355434405 0.011786317639 0.012161950844 0.012473664387 0.012714504034 0.012879664974 0.012966856802 0.012976573008 0.012912241518 
0.012780237485 0.012589750864 0.012352514831 0.012082407332 0.011794946503 0.01150670305 0.011234642724 0.010995424906 0.010804754904 
0.010676976213 0.01062531173 0.0063739473811 0.0061600498927 0.0059381179859 0.005715830519 0.0055000807655 0.0052972238442 0.0051132471191 
0.0049537833601 0.004823871317 0.0047276485711 0.004668199625 0.0046476474891 0.0046674194329 0.0047285433537 0.0048318556907 0.004978073598 
0.0051677483168 0.0054011441432 0.0056780858977 0.0059978010818 0.0063587685313 0.0067585790769 0.0071938140441 0.0076599510334 0.0081513081035 
0.0086610396267 0.0091793109647 0.0096967110378 0.010203330124 0.010688726394 0.011142276043 0.011553583031 0.011912932997 0.012211771408 
0.012443178336 0.012602305843 0.012686745372 0.012696794903 0.012635597844 0.012509131791 0.012326040783 0.012097318451 0.011835859017 
0.011555906239 0.011272438246 0.011000515309 0.010754646536 0.010548250258 0.010393264584 0.01029995318 0.0067027161017 0.0064220446111 
0.0061564054489 0.0059076158627 0.0056776602327 0.005469139887 0.0052852085481 0.0051291883397 0.0050040676644 0.0049121572738 0.0048550420811 
0.0048337783403 0.0048491803017 0.0049020492202 0.0049932718613 0.0051237910995 0.0052944901486 0.0055060368411 0.0057587170126 0.0060522696213 
0.0063857265258 0.0067572607712 0.0071640501208 0.0076021666173 0.0080665036843 0.0085507534282 0.0090454047084 0.0095413302662 0.010028914853 
0.010497912391 0.01093778597 0.011338115774 0.011689060566 0.011981851567 0.012209287056 0.012366190226 0.012449794461 0.012460021274 
0.012399618462 0.0122741349 0.012091727191 0.011862806246 0.011599546309 0.011315293717 0.011023924421 0.01073918137 0.010474063069 
0.010240300294 0.010047907977 0.0099047269275 0.0070198695619 0.0066717418893 0.0063578479013 0.0060758653339 0.0058244293316 0.0056033803442 
0.0054134018416 0.0052554407092 0.0051302363739 0.00503815035 0.0049792806646 0.004953712898 0.0049617480812 0.0050040157713 0.0050814596254 
0.0051952296092 0.0053465257172 0.0055364243194 0.0057657003821 0.0060346471332 0.0063428967919 0.0066892469003 0.0070715017698 0.0074863416939 
0.0079292292512 0.0083943632598 0.0088725903185 0.0093548607405 0.0098317004294 0.010292859649 0.01072764899 0.01112535555 0.011475724264 
0.011769479712 0.011998852136 0.012158067616 0.012243763522 0.012255290299 0.012194862887 0.012067536736 0.011881003444 0.011645213274 
0.011371851716 0.011073712385 0.010764023873 0.01045576394 0.01016104523 0.0098905826043 0.0096532146268 0.0094553935868 0.007303366622 
0.0068882776647 0.0065236919294 0.0062046179348 0.0059273644732 0.0056894598119 0.0054891586404 0.005324947702 0.0051953105994 0.0050987819778 
0.0050341628199 0.005000737685 0.004998393441 0.0050276168714 0.0050893977226 0.005185077502 0.0053161742483 0.0054841963746 0.0056904461562 
0.0059358165765 0.0062205856689 0.0065442173518 0.0069051802584 0.0073007930089 0.0077271031953 0.0081788097042 0.008647193968 0.0091230715741 
0.0095969800734 0.010058495789 0.01049657302 0.010899975774 0.01125778506 0.011559953877 0.011797871278 0.011964894706 0.012056809041 
0.0120721689 0.012012482238 0.011882207488 0.011688556074 0.011441105305 0.011151252065 0.010831553132 0.010495017194 0.01015438637 
0.0098215041161 0.009506766337 0.0092186400172 0.0089631808102 0.0075335271582 0.0070526357264 0.0066366647816 0.006278901611 0.0059737325318 
0.0057164108688 0.0055026968244 0.0053286525444 0.0051906907199 0.0050857810242 0.005011665295 0.0049669811488 0.00495126923 0.0049648881106 
0.0050088733957 0.0050847682852 0.0051944367428 0.005339858644 0.0055229092918 0.0057451285029 0.0060074895624 0.0063101766862 0.0066523779485 
0.00703209974 0.0074460085375 0.0078893122014 0.0083538486632 0.0088300822881 0.0093084646448 0.0097782685436 0.010227932266 0.010645506187 
0.011019184667 0.011337894942 0.011591905086 0.011773410494 0.011877053754 0.011900328391 0.011843817607 0.011711235482 0.011509256362 
0.011247134107 0.010936143137 0.010588889286 0.010218562154 0.00983817419 0.0094598944859 0.0090944710453 0.008750744947 0.0084352011752 
0.0076924187586 0.0071475878368 0.0066810442103 0.0062847122509 0.0059510077475 0.0056727824243 0.0054433039349 0.0052563939925 0.0051066838212 
0.0049898592911 0.0049028029915 0.0048436136553 0.0048115322201 0.0048068128768 0.0048305647165 0.0048845723791 0.0049710926365 0.005092626142 
0.0052516714667 0.0054504708598 0.0056907582317 0.0059735112011 0.0062987105953 0.0066651133389 0.0070700480013 0.0075092516721 0.0079752975331 
0.0084580966769 0.0089479653993 0.0094337949601 0.0099033928085 0.010343935841 0.010742521848 0.01108679328 0.011365597603 0.011569642947 
0.01169209887 0.011729084875 0.011679989761 0.011547582376 0.011337890915 0.01105984741 0.01072472851 0.010345440492 0.0099357256664 
0.0095093457238 0.00907935814 0.0086574847686 0.0082535960701 0.0078752651375 0.0077636629761 0.0071575727676 0.0066424554055 0.0062087756267 
0.005846747406 0.0055467355294 0.0052996437431 0.0050973230111 0.0049329124574 0.0048010373484 0.0046978567741 0.0046210035764 0.004569465904 
0.0045434402009 0.0045441636173 0.0045737200458 0.0046348150294 0.0047305253561 0.0048640339688 0.0050383597122 0.0052560832968 0.0055190651792 
0.0058281619087 0.0061829480267 0.0065814641123 0.0070200189712 0.0074921831882 0.0079871492899 0.0084951083587 0.0090045442118 0.0095025558441 
0.0099753069909 0.010408593124 0.010788503128 0.011102141899 0.011338370536 0.011488508227 0.011546929983 0.011511494877 0.011383755989 
0.011168918007 0.010875530865 0.010514946076 0.010100580717 0.0096470693784 0.0091693733192 0.0086819675715 0.0081981188439 0.007729298017 
0.0072846902472 0.0077323662459 0.0070684765646 0.0065075678205 0.0060383352077 0.0056485988697 0.0053262778208 0.0050601273628 0.0048402946349 
0.0046586489211 0.0045089003726 0.0043865710255 0.0042888889107 0.0042146493871 0.0041640574724 0.0041385461751 0.0041405618885 0.0041733194034 
0.0042405374948 0.0043461636119 0.004494087737 0.0046878368843 0.0049302503524 0.0052231435426 0.0055669797051 0.0059605808478 0.0064009047601 
0.0068829125921 0.0073949388915 0.0079271261752 0.0084675722375 0.0090026212926 0.009517303117 0.009995913174 0.010422714319 0.010782728688 
0.011062574819 0.011251289696 0.011341061847 0.011327801286 0.011211484903 0.010996228323 0.010690059587 0.010304411698 0.0098533724998 
0.0093527719785 0.0088191932551 0.0082690302507 0.0077176270261 0.0071785655271 0.0066630769155 0.0075850071451 0.006867368563 0.0062638553833 
0.0057610941975 0.0053444604001 0.0049995736037 0.0047132677013 0.0044741908298 0.0042730829252 0.0041028256661 0.0039583675945 0.0038365955799 
0.0037361827889 0.0036574154709 0.0036019900477 0.0035727786754 0.003573573389 0.0036088168539 0.0036833189813 0.0038019444095 0.003969267814 
0.0041891995902 0.0044646006003 0.0047969177089 0.0051858600152 0.0056291388805 0.0061236646791 0.0066567836827 0.0072187433301 0.0077973198694 
0.008378091791 0.0089448651888 0.0094802606144 0.0099664503896 0.010386020446 0.01072291286 0.010963386541 0.011096914944 0.011116936428 
0.011021379424 0.010812893623 0.010498743622 0.010090365363 0.0096026131618 0.0090527722952 0.0084594432977 0.0078414224625 0.0072166444187 
0.0066012821341 0.006008998293 0.0073092642533 0.0065422870997 0.0058995048714 0.0053653135421 0.0049227255275 0.0045552460659 0.0042479704448 
0.0039881773046 0.0037655566359 0.0035722188656 0.0034025972437 0.003253304098 0.0031229607768 0.0030120013325 0.0029224473061 0.0028576617763 
0.0028220926282 0.0028210014916 0.0028601616929 0.0029455112772 0.0030827648312 0.0032769965987 0.003532224953 0.003851018732 0.0042341472954 
0.0046802761832 0.0051885707315 0.0057457050384 0.0063421676703 0.0069655063203 0.0076005709785 0.0082299052331 0.0088343202799 0.0093936533525 
0.0098876932058 0.010297233061 0.01060518806 0.010797689699 0.010865060972 0.010802574282 0.010610897792 0.010296160713 0.0098696120648 
0.009346883918 0.0087469225557 0.0080907146863 0.0073999359298 0.006695627273 0.0059970327894 0.005320620507 0.00689385582 0.0060821417304 
0.0054034683329 0.004839996564 0.0043725290011 0.0039826241167 0.0036537613246 0.0033719231561 0.0031257984014 0.0029067744439 0.0027088263279 
0.0025283541656 0.0023639878018 0.0022163642929 0.0020878871192 0.0019824797305 0.0019053309821 0.0018626135866 0.0018611521972 0.0019080403668 
0.0020102194966 0.0021740397728 0.002404829377 0.0027064778763 0.0030810212292 0.0035282588543 0.0040499419708 0.0046326447066 0.0052672406622 
0.0059411929581 0.0066387376863 0.0073411922865 0.0080274827125 0.0086749003753 0.009260079277 0.0097601602519 0.010154080924 0.010423899445 
0.01055604306 0.010542360467 0.010380851939 0.010075973283 0.0096384510574 0.0090845938639 0.0084351431206 0.007713809714 0.0069456287758 
0.0061552879499 0.0053656127422 0.0045962715701 0.0063284660318 0.0054767424152 0.0047656042714 0.004175087289 0.0036839500212 0.0032719325935 
0.0029209756858 0.0026158118589 0.0023441689875 0.0020967584374 0.0018671494879 0.0016515811789 0.0014487372373 0.00125950216 0.0010867159988 
0.00093493209968 0.00081015704577 0.00071954493123 0.00067103500885 0.0006729446158 0.00073353764302 0.00086058675579 0.0010609338249 0.0013400362316 
0.0017014735441 0.002146387447 0.0026787248911 0.0032869071287 0.0039618363758 0.0046911107818 0.0054585853893 0.0062444893462 0.0070258675257 
0.0077773100556 0.0084719630873 0.0090827981191 0.00958408421 0.0099529707523 0.010171060234 0.010225825092 0.010111704856 0.0098307352052 
0.0093925953635 0.0088140187282 0.0081175778949 0.0073300043574 0.0064801820016 0.0055970299364 0.004707524703 0.0038349817055 0.0056037872984 
0.0047169222231 0.003976848306 0.0033616432172 0.0028481706554 0.0024144488644 0.0020409363254 0.001711157009 0.001411920246 0.0011333070138 
0.00086852397299 0.0006136846047 0.00036755728601 0.00013131072913 -9.1728333058e-05 -0.00029632057274 -0.00047559304072 -0.00062137264894 -0.00072456601697 
-0.00077556537742 -0.00076466608039 -0.00068249429166 -0.00052045764149 -0.00027124136363 7.0677787035e-05 0.00050855027135 0.0010447259047 0.0016769452428 
0.0023926214479 0.0031803292615 0.0040239846875 0.0049029935864 0.0057926275409 0.0066647035865 0.0074886017459 0.0082326216178 0.0088656360904 
0.0093589557413 0.0096882755034 0.0098355327518 0.0097904703055 0.009551700166 0.0091270868979 0.0085333364567 0.0077947518918 0.0069413190114 
0.0060062674054 0.005023393269 0.0040244803087 0.003037018434 0.0047116594185 0.0037947057733 0.0030293764414 0.0023919766196 0.0018576067413 
0.0014026472165 0.0010061315676 0.00065042399582 0.00032146209726 8.7373581054e-06 -0.00029487665002 -0.0005933725905 -0.00088787779856 -0.0011769102931 
-0.0014566231695 -0.0017210665222 -0.0019624923361 -0.0021717029565 -0.0023384226987 -0.0024516773703 -0.0025001838224 -0.0024727742224 -0.0023588748933 
-0.0021490588563 -0.0018356185309 -0.0014131314282 -0.00087888948687 -0.00022787685485 0.00052626610279 0.0013733042003 0.0022976184361 0.0032781474833 
0.0042886163272 0.0052981122845 0.0062720636995 0.0071736486239 0.007965612949 0.008612426062 0.0090826449113 0.0093512934077 0.0094020048596 
0.0092286559536 0.0088362244528 0.0082406725031 0.007467741906 0.0065508083673 0.0055279398228 0.0044385261043 0.0033199262162 0.0022044417391 
0.0036452615407 0.002703483865 0.0019167467683 0.0012597721036 0.0007060250804 0.00023033909171 -0.00018960639861 -0.00057254655918 -0.00093336696991 
-0.0012831341831 -0.0016292936399 -0.0019759375029 -0.0023240791657 -0.0026719116304 -0.0030150672273 -0.0033469048529 -0.0036588310029 -0.0039406391211 
-0.0041808443714 -0.0043670199324 -0.0044861631681 -0.0045251267156 -0.0044711403957 -0.0043124148271 -0.0040387965519 -0.0036424807045 -0.00311878211 
-0.0024567762294 -0.0016693125611 -0.00076475057547 0.00024232745536 0.0013308930467 0.002473506595 0.0036367264596 0.004781984609 0.0058669910195 
0.0068476779666 0.0076806376948 0.0083259342018 0.0087500808834 0.0089288866794 0.0088498224327 0.0085135318915 0.0079341743922 0.0071383751652 
0.0061628833566 0.0050510670132 0.0038486985214 0.0025996141487 0.0013417031743 0.0023993122125 0.0014381693821 0.00063401542721 -3.9815234347e-05 
-0.00061135095001 -0.0011071941529 -0.0015509294147 -0.0019623214813 -0.0023570342657 -0.0027466742075 -0.0031390051112 -0.0035382236545 -0.0039452364452 
-0.0043579319731 -0.0047714657465 -0.0051785676431 -0.0055698579719 -0.0059341465671 -0.0062587115966 -0.0065295924633 -0.0067319434731 -0.0068504814771 
-0.0068700346391 -0.0067761782061 -0.0065559566182 -0.0061987156828 -0.0056970671156 -0.005035379869 -0.004223081522 -0.0032660195525 -0.0021770754375 
-0.00097658688289 0.00030741324129 0.0016393558789 0.0029768249533 0.0042718788999 0.005473057375 0.0065280651188 0.0073870387368 0.0080061864927 
0.0083514657198 0.0084018677421 0.0081518061859 0.007612144041 0.0068094777251 0.0057836848528 0.004583817977 0.0032628816675 0.0018722415078 
0.00045631751822 0.00097024485051 -4.6809117844e-06 -0.00082217806716 -0.0015100854803 -0.0020977548435 -0.0026130857928 -0.0030808188131 -0.0035216752632 
-0.0039520625606 -0.0043841228498 -0.0048259511725 -0.0052818703014 -0.0057527174151 -0.0062361398827 -0.0067269061306 -0.0072172150004 -0.0076969767753 
-0.0081540481252 -0.0085744510792 -0.008942638055 -0.0092418397036 -0.0094545127812 -0.0095628910883 -0.0095496301435 -0.0093985690071 -0.0090956173126 
-0.0086297897734 -0.0079838306109 -0.007158757745 -0.006157842064 -0.0049915248146 -0.0036786077322 -0.00224692382 -0.00073352699727 0.0008157142146 
0.0023472555841 0.0038018521875 0.0051174170364 0.0062327157164 0.0070917067187 0.007648169366 0.0078701100666 0.0077432970111 0.0072732667038 
0.0064852028894 0.0054215342816 0.0041372330306 0.0026934156376 0.0011501867043 -0.00044036545322 -0.0006436631635 -0.0016267901284 -0.0024535653984 
-0.0031527536806 -0.003754821805 -0.0042887990205 -0.0047804618302 -0.0052514204362 -0.0057188055585 -0.0061953071403 -0.0066893821163 -0.0072055293465 
-0.007744594762 -0.0083040959627 -0.0088785442671 -0.0094597291177 -0.010036934306 -0.010597102667 -0.0111250143 -0.011603529978 -0.01201392308 
-0.012336298486 -0.012550125802 -0.012634876843 -0.012570805127 -0.012339847687 -0.011926604179 -0.011315176372 -0.010492376614 -0.0094600931619 
-0.0082250001385 -0.0068032448657 -0.0052214236627 -0.0035171625402 -0.0017390889648 5.4003302561e-05 0.0017949692276 0.0034112320826 0.0048288328095 
0.0059774674739 0.0067961588307 0.0072389887252 0.0072800875153 0.0069169919658 0.0061714828767 0.0050874964476 0.0037259060665 0.0021567953555 
0.00045036899815 -0.001332259882 -0.0024422222361 -0.0034281423165 -0.0042602549666 -0.0049679570353 -0.0055825788688 -0.0061340876715 -0.0066491732924 
-0.0071502811719 -0.007655264829 -0.008177395554 -0.0087255514992 -0.0093044982091 -0.009915218951 -0.01055525815 -0.011219029789 -0.011898043899 
-0.01258104933 -0.013254145574 -0.013900934802 -0.014502734011 -0.015038860726 -0.015487013045 -0.01582376373 -0.016025189223 -0.016067662782 
-0.015928798462 -0.015588521533 -0.015029957062 -0.014229070115 -0.013182221211 -0.01189149296 -0.010369206652 -0.0086394875881 -0.0067393442354 
-0.0047191354129 -0.0026421832883 -0.00058327986963 0.001374132791 0.0031422348897 0.0046344988447 0.0057724486208 0.0064929032789 0.0067547542572 
0.0065441233159 0.0058766430224 0.0047960825176 0.0033688032575 0.0016745983935 -0.00020474011658 -0.0021974821664 -0.004423335034 -0.0054070309503 
-0.0062408012107 -0.0069543229938 -0.007579496278 -0.0081470179301 -0.0086843778794 -0.0092148251757 -0.009756963128 -0.010324710205 -0.010927469258 
-0.0115704182 -0.012254858811 -0.012978555705 -0.013735997231 -0.014518551546 -0.01531454913 -0.01610936526 -0.016885535124 -0.017622912519 
-0.018298900089 -0.018888771509 -0.019366124098 -0.019703474738 -0.019873071103 -0.01984794017 -0.019603265491 -0.019118403137 -0.018361184955 
-0.017320520481 -0.015991955124 -0.014382553278 -0.012512537987 -0.01041684898 -0.0081462051343 -0.0057673186858 -0.0033619156511 -0.0010242297616 
0.0011432905438 0.0030361409399 0.0045555778922 0.0056175084219 0.0061613868267 0.0061576861765 0.0056122376057 0.0045661434541 0.0030902607349 
0.0012745926884 -0.00078592268581 -0.0030071008811 -0.0065830827102 -0.0075601869681 -0.0083923510898 -0.0091091153538 -0.009742616273 -0.010324067795 
-0.010881665947 -0.011439465171 -0.012016884873 -0.0126286091 -0.013284732718 -0.013991055876 -0.014749427704 -0.015558047254 -0.016411659549 
-0.017301648695 -0.018216086356 -0.01913978006 -0.020054337023 -0.020938259638 -0.021767113411 -0.02251378027 -0.023148838465 -0.023641130178 
-0.023958557224 -0.024069131621 -0.023942289949 -0.023550517966 -0.022864810909 -0.021855416497 -0.020511378748 -0.01883344038 -0.016836461645 
-0.014551656701 -0.01202839419 -0.0093351873905 -0.0065594514508 -0.0038055722643 -0.0011908652432 0.0011608349855 0.0031279134593 0.0046015560256 