# vtk DataFile Version 4.1
vtk output
ASCII
DATASET STRUCTURED_GRID
DIMENSIONS 51 51 1
POINTS 2601 float
0 0 0 0.02 0 0 0.04 0 0 
0.06 0 0 0.08 0 0 0.1 0 0 
0.12 0 0 0.14 0 0 0.16 0 0 
0.18 0 0 0.2 0 0 0.22 0 0 
0.24 0 0 0.26 0 0 0.28 0 0 
0.3 0 0 0.32 0 0 0.34 0 0 
0.36 0 0 0.38 0 0 0.4 0 0 
0.42 0 0 0.44 0 0 0.46 0 0 
0.48 0 0 0.5 0 0 0.52 0 0 
0.54 0 0 0.56 0 0 0.58 0 0 
0.6 0 0 0.62 0 0 0.64 0 0 
0.66 0 0 0.68 0 0 0.7 0 0 
0.72 0 0 0.74 0 0 0.76 0 0 
0.78 0 0 0.8 0 0 0.82 0 0 
0.84 0 0 0.86 0 0 0.88 0 0 
0.9 0 0 0.92 0 0 0.94 0 0 
0.96 0 0 0.98 0 0 1 0 0 
0 0.02 0 0.02 0.02 0 0.04 0.02 0 
0.06 0.02 0 0.08 0.02 0 0.1 0.02 0 
0.12 0.02 0 0.14 0.02 0 0.16 0.02 0 
0.18 0.02 0 0.2 0.02 0 0.22 0.02 0 
0.24 0.02 0 0.26 0.02 0 0.28 0.02 0 
0.3 0.02 0 0.32 0.02 0 0.34 0.02 0 
0.36 0.02 0 0.38 0.02 0 0.4 0.02 0 
0.42 0.02 0 0.44 0.02 0 0.46 0.02 0 
0.48 0.02 0 0.5 0.02 0 0.52 0.02 0 
0.54 0.02 0 0.56 0.02 0 0.58 0.02 0 
0.6 0.02 0 0.62 0.02 0 0.64 0.02 0 
0.66 0.02 0 0.68 0.02 0 0.7 0.02 0 
0.72 0.02 0 0.74 0.02 0 0.76 0.02 0 
0.78 0.02 0 0.8 0.02 0 0.82 0.02 0 
0.84 0.02 0 0.86 0.02 0 0.88 0.02 0 
0.9 0.02 0 0.92 0.02 0 0.94 0.02 0 
0.96 0.02 0 0.98 0.02 0 1 0.02 0 
0 0.04 0 0.02 0.04 0 0.04 0.04 0 
0.06 0.04 0 0.08 0.04 0 0.1 0.04 0 
0.12 0.04 0 0.14 0.04 0 0.16 0.04 0 
0.18 0.04 0 0.2 0.04 0 0.22 0.04 0 
0.24 0.04 0 0.26 0.04 0 0.28 0.04 0 
0.3 0.04 0 0.32 0.04 0 0.34 0.04 0 
0.36 0.04 0 0.38 0.04 0 0.4 0.04 0 
0.42 0.04 0 0.44 0.04 0 0.46 0.04 0 
0.48 0.04 0 0.5 0.04 0 0.52 0.04 0 
0.54 0.04 0 0.56 0.04 0 0.58 0.04 0 
0.6 0.04 0 0.62 0.04 0 0.64 0.04 0 
0.66 0.04 0 0.68 0.04 0 0.7 0.04 0 
0.72 0.04 0 0.74 0.04 0 0.76 0.04 0 
0.78 0.04 0 0.8 0.04 0 0.82 0.04 0 
0.84 0.04 0 0.86 0.04 0 0.88 0.04 0 
0.9 0.04 0 0.92 0.04 0 0.94 0.04 0 
0.96 0.04 0 0.98 0.04 0 1 0.04 0 
0 0.06 0 0.02 0.06 0 0.04 0.06 0 
0.06 0.06 0 0.08 0.06 0 0.1 0.06 0 
0.12 0.06 0 0.14 0.06 0 0.16 0.06 0 
0.18 0.06 0 0.2 0.06 0 0.22 0.06 0 
0.24 0.06 0 0.26 0.06 0 0.28 0.06 0 
0.3 0.06 0 0.32 0.06 0 0.34 0.06 0 
0.36 0.06 0 0.38 0.06 0 0.4 0.06 0 
0.42 0.06 0 0.44 0.06 0 0.46 0.06 0 
0.48 0.06 0 0.5 0.06 0 0.52 0.06 0 
0.54 0.06 0 0.56 0.06 0 0.58 0.06 0 
0.6 0.06 0 0.62 0.06 0 0.64 0.06 0 
0.66 0.06 0 0.68 0.06 0 0.7 0.06 0 
0.72 0.06 0 0.74 0.06 0 0.76 0.06 0 
0.78 0.06 0 0.8 0.06 0 0.82 0.06 0 
0.84 0.06 0 0.86 0.06 0 0.88 0.06 0 
0.9 0.06 0 0.92 0.06 0 0.94 0.06 0 
0.96 0.06 0 0.98 0.06 0 1 0.06 0 
0 0.08 0 0.02 0.08 0 0.04 0.08 0 
0.06 0.08 0 0.08 0.08 0 0.1 0.08 0 
0.12 0.08 0 0.14 0.08 0 0.16 0.08 0 
0.18 0.08 0 0.2 0.08 0 0.22 0.08 0 
0.24 0.08 0 0.26 0.08 0 0.28 0.08 0 
0.3 0.08 0 0.32 0.08 0 0.34 0.08 0 
0.36 0.08 0 0.38 0.08 0 0.4 0.08 0 
0.42 0.08 0 0.44 0.08 0 0.46 0.08 0 
0.48 0.08 0 0.5 0.08 0 0.52 0.08 0 
0.54 0.08 0 0.56 0.08 0 0.58 0.08 0 
0.6 0.08 0 0.62 0.08 0 0.64 0.08 0 
0.66 0.08 0 0.68 0.08 0 0.7 0.08 0 
0.72 0.08 0 0.74 0.08 0 0.76 0.08 0 
0.78 0.08 0 0.8 0.08 0 0.82 0.08 0 
0.84 0.08 0 0.86 0.08 0 0.88 0.08 0 
0.9 0.08 0 0.92 0.08 0 0.94 0.08 0 
0.96 0.08 0 0.98 0.08 0 1 0.08 0 
0 0.1 0 0.02 0.1 0 0.04 0.1 0 
0.06 0.1 0 0.08 0.1 0 0.1 0.1 0 
0.12 0.1 0 0.14 0.1 0 0.16 0.1 0 
0.18 0.1 0 0.2 0.1 0 0.22 0.1 0 
0.24 0.1 0 0.26 0.1 0 0.28 0.1 0 
0.3 0.1 0 0.32 0.1 0 0.34 0.1 0 
0.36 0.1 0 0.38 0.1 0 0.4 0.1 0 
0.42 0.1 0 0.44 0.1 0 0.46 0.1 0 
0.48 0.1 0 0.5 0.1 0 0.52 0.1 0 
0.54 0.1 0 0.56 0.1 0 0.58 0.1 0 
0.6 0.1 0 0.62 0.1 0 0.64 0.1 0 
0.66 0.1 0 0.68 0.1 0 0.7 0.1 0 
0.72 0.1 0 0.74 0.1 0 0.76 0.1 0 
0.78 0.1 0 0.8 0.1 0 0.82 0.1 0 
0.84 0.1 0 0.86 0.1 0 0.88 0.1 0 
0.9 0.1 0 0.92 0.1 0 0.94 0.1 0 
0.96 0.1 0 0.98 0.1 0 1 0.1 0 
0 0.12 0 0.02 0.12 0 0.04 0.12 0 
0.06 0.12 0 0.08 0.12 0 0.1 0.12 0 
0.12 0.12 0 0.14 0.12 0 0.16 0.12 0 
0.18 0.12 0 0.2 0.12 0 0.22 0.12 0 
0.24 0.12 0 0.26 0.12 0 0.28 0.12 0 
0.3 0.12 0 0.32 0.12 0 0.34 0.12 0 
0.36 0.12 0 0.38 0.12 0 0.4 0.12 0 
0.42 0.12 0 0.44 0.12 0 0.46 0.12 0 
0.48 0.12 0 0.5 0.12 0 0.52 0.12 0 
0.54 0.12 0 0.56 0.12 0 0.58 0.12 0 
0.6 0.12 0 0.62 0.12 0 0.64 0.12 0 
0.66 0.12 0 0.68 0.12 0 0.7 0.12 0 
0.72 0.12 0 0.74 0.12 0 0.76 0.12 0 
0.78 0.12 0 0.8 0.12 0 0.82 0.12 0 
0.84 0.12 0 0.86 0.12 0 0.88 0.12 0 
0.9 0.12 0 0.92 0.12 0 0.94 0.12 0 
0.96 0.12 0 0.98 0.12 0 1 0.12 0 
0 0.14 0 0.02 0.14 0 0.04 0.14 0 
0.06 0.14 0 0.08 0.14 0 0.1 0.14 0 
0.12 0.14 0 0.14 0.14 0 0.16 0.14 0 
0.18 0.14 0 0.2 0.14 0 0.22 0.14 0 
0.24 0.14 0 0.26 0.14 0 0.28 0.14 0 
0.3 0.14 0 0.32 0.14 0 0.34 0.14 0 
0.36 0.14 0 0.38 0.14 0 0.4 0.14 0 
0.42 0.14 0 0.44 0.14 0 0.46 0.14 0 
0.48 0.14 0 0.5 0.14 0 0.52 0.14 0 
0.54 0.14 0 0.56 0.14 0 0.58 0.14 0 
0.6 0.14 0 0.62 0.14 0 0.64 0.14 0 
0.66 0.14 0 0.68 0.14 0 0.7 0.14 0 
0.72 0.14 0 0.74 0.14 0 0.76 0.14 0 
0.78 0.14 0 0.8 0.14 0 0.82 0.14 0 
0.84 0.14 0 0.86 0.14 0 0.88 0.14 0 
0.9 0.14 0 0.92 0.14 0 0.94 0.14 0 
0.96 0.14 0 0.98 0.14 0 1 0.14 0 
0 0.16 0 0.02 0.16 0 0.04 0.16 0 
0.06 0.16 0 0.08 0.16 0 0.1 0.16 0 
0.12 0.16 0 0.14 0.16 0 0.16 0.16 0 
0.18 0.16 0 0.2 0.16 0 0.22 0.16 0 
0.24 0.16 0 0.26 0.16 0 0.28 0.16 0 
0.3 0.16 0 0.32 0.16 0 0.34 0.16 0 
0.36 0.16 0 0.38 0.16 0 0.4 0.16 0 
0.42 0.16 0 0.44 0.16 0 0.46 0.16 0 
0.48 0.16 0 0.5 0.16 0 0.52 0.16 0 
0.54 0.16 0 0.56 0.16 0 0.58 0.16 0 
0.6 0.16 0 0.62 0.16 0 0.64 0.16 0 
0.66 0.16 0 0.68 0.16 0 0.7 0.16 0 
0.72 0.16 0 0.74 0.16 0 0.76 0.16 0 
0.78 0.16 0 0.8 0.16 0 0.82 0.16 0 
0.84 0.16 0 0.86 0.16 0 0.88 0.16 0 
0.9 0.16 0 0.92 0.16 0 0.94 0.16 0 
0.96 0.16 0 0.98 0.16 0 1 0.16 0 
0 0.18 0 0.02 0.18 0 0.04 0.18 0 
0.06 0.18 0 0.08 0.18 0 0.1 0.18 0 
0.12 0.18 0 0.14 0.18 0 0.16 0.18 0 
0.18 0.18 0 0.2 0.18 0 0.22 0.18 0 
0.24 0.18 0 0.26 0.18 0 0.28 0.18 0 
0.3 0.18 0 0.32 0.18 0 0.34 0.18 0 
0.36 0.18 0 0.38 0.18 0 0.4 0.18 0 
0.42 0.18 0 0.44 0.18 0 0.46 0.18 0 
0.48 0.18 0 0.5 0.18 0 0.52 0.18 0 
0.54 0.18 0 0.56 0.18 0 0.58 0.18 0 
0.6 0.18 0 0.62 0.18 0 0.64 0.18 0 
0.66 0.18 0 0.68 0.18 0 0.7 0.18 0 
0.72 0.18 0 0.74 0.18 0 0.76 0.18 0 
0.78 0.18 0 0.8 0.18 0 0.82 0.18 0 
0.84 0.18 0 0.86 0.18 0 0.88 0.18 0 
0.9 0.18 0 0.92 0.18 0 0.94 0.18 0 
0.96 0.18 0 0.98 0.18 0 1 0.18 0 
0 0.2 0 0.02 0.2 0 0.04 0.2 0 
0.06 0.2 0 0.08 0.2 0 0.1 0.2 0 
0.12 0.2 0 0.14 0.2 0 0.16 0.2 0 
0.18 0.2 0 0.2 0.2 0 0.22 0.2 0 
0.24 0.2 0 0.26 0.2 0 0.28 0.2 0 
0.3 0.2 0 0.32 0.2 0 0.34 0.2 0 
0.36 0.2 0 0.38 0.2 0 0.4 0.2 0 
0.42 0.2 0 0.44 0.2 0 0.46 0.2 0 
0.48 0.2 0 0.5 0.2 0 0.52 0.2 0 
0.54 0.2 0 0.56 0.2 0 0.58 0.2 0 
0.6 0.2 0 0.62 0.2 0 0.64 0.2 0 
0.66 0.2 0 0.68 0.2 0 0.7 0.2 0 
0.72 0.2 0 0.74 0.2 0 0.76 0.2 0 
0.78 0.2 0 0.8 0.2 0 0.82 0.2 0 
0.84 0.2 0 0.86 0.2 0 0.88 0.2 0 
0.9 0.2 0 0.92 0.2 0 0.94 0.2 0 
0.96 0.2 0 0.98 0.2 0 1 0.2 0 
0 0.22 0 0.02 0.22 0 0.04 0.22 0 
0.06 0.22 0 0.08 0.22 0 0.1 0.22 0 
0.12 0.22 0 0.14 0.22 0 0.16 0.22 0 
0.18 0.22 0 0.2 0.22 0 0.22 0.22 0 
0.24 0.22 0 0.26 0.22 0 0.28 0.22 0 
0.3 0.22 0 0.32 0.22 0 0.34 0.22 0 
0.36 0.22 0 0.38 0.22 0 0.4 0.22 0 
0.42 0.22 0 0.44 0.22 0 0.46 0.22 0 
0.48 0.22 0 0.5 0.22 0 0.52 0.22 0 
0.54 0.22 0 0.56 0.22 0 0.58 0.22 0 
0.6 0.22 0 0.62 0.22 0 0.64 0.22 0 
0.66 0.22 0 0.68 0.22 0 0.7 0.22 0 
0.72 0.22 0 0.74 0.22 0 0.76 0.22 0 
0.78 0.22 0 0.8 0.22 0 0.82 0.22 0 
0.84 0.22 0 0.86 0.22 0 0.88 0.22 0 
0.9 0.22 0 0.92 0.22 0 0.94 0.22 0 
0.96 0.22 0 0.98 0.22 0 1 0.22 0 
0 0.24 0 0.02 0.24 0 0.04 0.24 0 
0.06 0.24 0 0.08 0.24 0 0.1 0.24 0 
0.12 0.24 0 0.14 0.24 0 0.16 0.24 0 
0.18 0.24 0 0.2 0.24 0 0.22 0.24 0 
0.24 0.24 0 0.26 0.24 0 0.28 0.24 0 
0.3 0.24 0 0.32 0.24 0 0.34 0.24 0 
0.36 0.24 0 0.38 0.24 0 0.4 0.24 0 
0.42 0.24 0 0.44 0.24 0 0.46 0.24 0 
0.48 0.24 0 0.5 0.24 0 0.52 0.24 0 
0.54 0.24 0 0.56 0.24 0 0.58 0.24 0 
0.6 0.24 0 0.62 0.24 0 0.64 0.24 0 
0.66 0.24 0 0.68 0.24 0 0.7 0.24 0 
0.72 0.24 0 0.74 0.24 0 0.76 0.24 0 
0.78 0.24 0 0.8 0.24 0 0.82 0.24 0 
0.84 0.24 0 0.86 0.24 0 0.88 0.24 0 
0.9 0.24 0 0.92 0.24 0 0.94 0.24 0 
0.96 0.24 0 0.98 0.24 0 1 0.24 0 
0 0.26 0 0.02 0.26 0 0.04 0.26 0 
0.06 0.26 0 0.08 0.26 0 0.1 0.26 0 
0.12 0.26 0 0.14 0.26 0 0.16 0.26 0 
0.18 0.26 0 0.2 0.26 0 0.22 0.26 0 
0.24 0.26 0 0.26 0.26 0 0.28 0.26 0 
0.3 0.26 0 0.32 0.26 0 0.34 0.26 0 
0.36 0.26 0 0.38 0.26 0 0.4 0.26 0 
0.42 0.26 0 0.44 0.26 0 0.46 0.26 0 
0.48 0.26 0 0.5 0.26 0 0.52 0.26 0 
0.54 0.26 0 0.56 0.26 0 0.58 0.26 0 
0.6 0.26 0 0.62 0.26 0 0.64 0.26 0 
0.66 0.26 0 0.68 0.26 0 0.7 0.26 0 
0.72 0.26 0 0.74 0.26 0 0.76 0.26 0 
0.78 0.26 0 0.8 0.26 0 0.82 0.26 0 
0.84 0.26 0 0.86 0.26 0 0.88 0.26 0 
0.9 0.26 0 0.92 0.26 0 0.94 0.26 0 
0.96 0.26 0 0.98 0.26 0 1 0.26 0 
0 0.28 0 0.02 0.28 0 0.04 0.28 0 
0.06 0.28 0 0.08 0.28 0 0.1 0.28 0 
0.12 0.28 0 0.14 0.28 0 0.16 0.28 0 
0.18 0.28 0 0.2 0.28 0 0.22 0.28 0 
0.24 0.28 0 0.26 0.28 0 0.28 0.28 0 
0.3 0.28 0 0.32 0.28 0 0.34 0.28 0 
0.36 0.28 0 0.38 0.28 0 0.4 0.28 0 
0.42 0.28 0 0.44 0.28 0 0.46 0.28 0 
0.48 0.28 0 0.5 0.28 0 0.52 0.28 0 
0.54 0.28 0 0.56 0.28 0 0.58 0.28 0 
0.6 0.28 0 0.62 0.28 0 0.64 0.28 0 
0.66 0.28 0 0.68 0.28 0 0.7 0.28 0 
0.72 0.28 0 0.74 0.28 0 0.76 0.28 0 
0.78 0.28 0 0.8 0.28 0 0.82 0.28 0 
0.84 0.28 0 0.86 0.28 0 0.88 0.28 0 
0.9 0.28 0 0.92 0.28 0 0.94 0.28 0 
0.96 0.28 0 0.98 0.28 0 1 0.28 0 
0 0.3 0 0.02 0.3 0 0.04 0.3 0 
0.06 0.3 0 0.08 0.3 0 0.1 0.3 0 
0.12 0.3 0 0.14 0.3 0 0.16 0.3 0 
0.18 0.3 0 0.2 0.3 0 0.22 0.3 0 
0.24 0.3 0 0.26 0.3 0 0.28 0.3 0 
0.3 0.3 0 0.32 0.3 0 0.34 0.3 0 
0.36 0.3 0 0.38 0.3 0 0.4 0.3 0 
0.42 0.3 0 0.44 0.3 0 0.46 0.3 0 
0.48 0.3 0 0.5 0.3 0 0.52 0.3 0 
0.54 0.3 0 0.56 0.3 0 0.58 0.3 0 
0.6 0.3 0 0.62 0.3 0 0.64 0.3 0 
0.66 0.3 0 0.68 0.3 0 0.7 0.3 0 
0.72 0.3 0 0.74 0.3 0 0.76 0.3 0 
0.78 0.3 0 0.8 0.3 0 0.82 0.3 0 
0.84 0.3 0 0.86 0.3 0 0.88 0.3 0 
0.9 0.3 0 0.92 0.3 0 0.94 0.3 0 
0.96 0.3 0 0.98 0.3 0 1 0.3 0 
0 0.32 0 0.02 0.32 0 0.04 0.32 0 
0.06 0.32 0 0.08 0.32 0 0.1 0.32 0 
0.12 0.32 0 0.14 0.32 0 0.16 0.32 0 
0.18 0.32 0 0.2 0.32 0 0.22 0.32 0 
0.24 0.32 0 0.26 0.32 0 0.28 0.32 0 
0.3 0.32 0 0.32 0.32 0 0.34 0.32 0 
0.36 0.32 0 0.38 0.32 0 0.4 0.32 0 
0.42 0.32 0 0.44 0.32 0 0.46 0.32 0 
0.48 0.32 0 0.5 0.32 0 0.52 0.32 0 
0.54 0.32 0 0.56 0.32 0 0.58 0.32 0 
[...]
CELL_DATA 2500
FIELD FieldData 1
pressure 1 2500 double
0.0061842642326 0.0061148794857 0.0059229831138 0.0056484110864 0.0053312770019 0.0050040213222 0.0046909000806 0.004409403523 0.0041718558275 
0.0039867446244 0.0038597429305 0.0037944735523 0.003793079718 0.0038566565375 0.0039855758703 0.0041797125428 0.0044385643695 0.0047612582701 
0.0051464474721 0.0055921227774 0.0060953752722 0.0066521524462 0.0072570436163 0.0079031171506 0.0085818147177 0.0092828903613 0.0099940145149 
0.010701949969 0.011392750619 0.012051879379 0.012664631887 0.013216659721 0.013694560364 0.014086501078 0.0143828413 0.014576716176 
0.014664544338 0.014646426812 0.014526411571 0.014312609758 0.014017163979 0.013656084666 0.013248984198 0.012818744429 0.012391150005 
0.011994388901 0.011658289215 0.011412392694 0.011280787548 0.011268380119 0.006249783627 0.0061827994399 0.0060209491251 0.0057936999563 
0.0055299467157 0.0052551496998 0.0049900087338 0.0047503946944 0.004547910375 0.0043906823309 0.004284168235 0.0042318774792 0.0042359672788 
0.0042977028723 0.004417776694 0.0045964854889 0.0048337741653 0.005129168537 0.0054816300671 0.0058893700239 0.0063496568494 0.0068586415944 
0.007411216528 0.0080009145058 0.0086198543077 0.0092587449953 0.0099059979361 0.010549637735 0.011177101364 0.011775313362 0.012331097161 
0.012831658303 0.013265120433 0.013621086747 0.013891195183 0.014069633463 0.014153580643 0.014143545248 0.014043576909 0.013861338298 
0.013608035589 0.013298217131 0.012949457753 0.012581945045 0.012217965037 0.011881232891 0.011595873365 0.011384847975 0.011267322708 
0.011255962884 0.0064445785484 0.0063478132146 0.006182671619 0.0059708536469 0.0057340626958 0.0054919801939 0.0052609746517 0.0050537363522 
0.0048795871972 0.0047451122049 0.0046548532066 0.0046119274394 0.0046185139444 0.0046761886268 0.0047861090238 0.0049490672681 0.0051654441202 
0.005435102536 0.0057572547988 0.0061303261396 0.0065518259644 0.0070182305268 0.0075248799155 0.008065895483 0.0086341310329 0.0092211808492 
0.0098159767359 0.010407577397 0.010984462572 0.01153461704 0.012045930223 0.012506656926 0.012905922529 0.01323424833 0.013484067611 
0.013650200216 0.013730253309 0.013724918929 0.013638145314 0.013477167879 0.013252396235 0.012977163857 0.012667354151 0.012340917432 
0.012017284248 0.011716659919 0.011459158107 0.011263809007 0.011147666329 0.011126165949 0.0067301317449 0.0065783464083 0.0063863502452 
0.0061689487275 0.0059414142006 0.0057175524688 0.0055087666342 0.0053239038786 0.0051695813725 0.0050506836985 0.0049708467072 0.004932850953 
0.0049389006169 0.0049907850137 0.0050899354407 0.0052374044483 0.0054338000649 0.005679200987 0.0059730656954 0.0063141365954 0.0067003356602 
0.0071286514524 0.0075950248784 0.0080942486037 0.0086199013535 0.0091643414334 0.0097168925732 0.010267391066 0.010805047936 0.011318556953 
0.011796482051 0.012227704159 0.012601910885 0.012910105652 0.013145107222 0.013302006993 0.0133785506 0.013375413016 0.013296342459 
0.01314815734 0.012940591422 0.012685993572 0.012398897933 0.012095486118 0.011792964271 0.011508877411 0.011260394012 0.011063651576 
0.010933374186 0.010883209094 0.0070649525186 0.0068453810329 0.006613270572 0.0063771509374 0.006146003356 0.0059279542122 0.0057297755133 
0.0055568879303 0.0054135774372 0.0053032482021 0.0052286474272 0.005192046797 0.0051953709597 0.0052402661059 0.0053281136291 0.0054600046087 
0.0056366905003 0.0058585166097 0.0061253361887 0.0064364007164 0.0067902271615 0.0071844515845 0.0076156851144 0.0080793922799 0.0085698122905 
0.0090799417739 0.0095994206378 0.010118615357 0.010627218167 0.011114343248 0.011568902899 0.011980047408 0.012337651866 0.012632825795 
0.01285841515 0.013009461993 0.013083585796 0.013081252795 0.013005905994 0.012863937924 0.012664500535 0.012419159954 0.01214141648 
0.011846120691 0.011548823837 0.011265106393 0.011009937338 0.010797133364 0.010639004662 0.010546207847 0.007415222129 0.0071238591673 
0.0068447020926 0.0065807260974 0.0063354851603 0.0061124597541 0.005914775376 0.0057451324024 0.005605809706 0.0054987060866 0.0054254201231 
0.0053873525675 0.0053857981866 0.0054220007351 0.0054971638584 0.00561242268 0.0057687807184 0.0059670127577 0.0062075336621 0.0064902379629 
0.0068143219538 0.0071781044103 0.0075788626029 0.0080126996148 0.0084744570657 0.008957685359 0.0094523272266 0.0099490542224 0.010437845459 
0.010907998132 0.011348496265 0.011748451594 0.012097598979 0.012386820515 0.012608665695 0.012757830033 0.012831552793 0.012829896639 
0.012755878293 0.012615429669 0.012417182968 0.01217208899 0.011892893949 0.011593514112 0.011288357668 0.010991648499 0.010716805491 
0.010475919308 0.010279330354 0.010135191187 0.0077540894012 0.0073905794051 0.0070601797482 0.0067615690825 0.0064942834822 0.0062583507366 
0.0060540240085 0.0058815925886 0.0057412790404 0.0056332424121 0.0055576686065 0.0055148917415 0.0055054898003 0.0055303247492 0.0055905233806 
0.0056874054819 0.0058223658565 0.0059967164467 0.0062114977605 0.006467273143 0.006763921022 0.0071004381226 0.007474763855 0.0078836352406 
0.0083224821975 0.0087853739283 0.0092625994103 0.0097449200065 0.01022244543 0.010684456009 0.011119769359 0.011517189454 0.011866019387 
0.012156610542 0.012380913364 0.012532989206 0.012609440192 0.012609715642 0.012536259771 0.012394476749 0.012192504825 0.011940809679 
0.011651626263 0.011338295388 0.011014552979 0.010693833536 0.01038864112 0.010110015933 0.0098670732942 0.0096665008681 0.0080582334099 
0.0076231361427 0.0072390490037 0.0069017042137 0.0066076948394 0.0063542203442 0.0061388682331 0.0059594640032 0.0058140466844 0.0057009624383 
0.0056190119698 0.005567576579 0.0055466773559 0.0055569588377 0.0055996076993 0.0056762189715 0.0057886200941 0.0059386637434 0.0061280026646 
0.0063578600166 0.0066288053405 0.0069405421185 0.0072917120307 0.0076797233067 0.0081006142839 0.0085489657585 0.0090155012747 0.0094908550689 
0.0099651422116 0.010427461379 0.01086626245 0.011269807214 0.011626704385 0.011926491076 0.012160224386 0.012321039742 0.012404628912 
0.012409591194 0.012337617181 0.012193476539 0.011984798402 0.011721653945 0.011415972949 0.01108084592 0.010729776802 0.010375954364 
0.010031598842 0.0097074110026 0.0094121012537 0.0091519082696 0.0083061786264 0.0078008808814 0.0073628051767 0.0069854704991 0.006662854569 
0.0063893921414 0.0061599652298 0.0059699424846 0.0058153039286 0.0056928091447 0.0056001389193 0.0055359626905 0.0054999231487 0.0054925528679 
0.0055151395768 0.0055695503733 0.0056580230179 0.0057829341741 0.0059465556307 0.0061508072517 0.0063970112638 0.0066856509203 0.0070161393599 
0.0073866090945 0.0077937368109 0.0082326196249 0.0086945527911 0.0091698312446 0.0096484879547 0.010119315551 0.010570232972 0.010988756908 
0.011362560646 0.011680092933 0.011931219495 0.012107841164 0.012204437189 0.012218481404 0.012150684254 0.012005025779 0.011788563152 
0.011511019655 0.011184187361 0.010821198707 0.010435738213 0.010041269598 0.0096503416124 0.0092740061987 0.0089213362944 0.0085989745619 
0.0084786034906 0.0079058858541 0.0074155121214 0.0069988180356 0.0066470855069 0.0063519646845 0.0061057513957 0.0059016185493 0.0057338239604 
0.005597864422 0.0054905472205 0.0054099784685 0.0053554878861 0.0053275088195 0.0053274211149 0.0053573584696 0.0054199840709 0.0055182421107 
0.0056550934981 0.0058332415621 0.0060548514042 0.0063212681645 0.0066327437972 0.0069881862307 0.0073849472224 0.0078186648736 0.0082814102453 
0.0087629500565 0.0092531943827 0.0097405495256 0.010212277494 0.010654974194 0.011055151504 0.01139989713 0.01167757441 0.011878513681 
0.011995639315 0.012024973676 0.011965963229 0.011821583581 0.011598199403 0.01130518063 0.010954304857 0.010559002634 0.010133522061 
0.0096920957019 0.0092481825083 0.0088138288421 0.0083991488578 0.0080118742299 0.0085586973395 0.007922481529 0.0073824881762 0.0069276872073 
0.0065466722896 0.0062284938172 0.0059631698049 0.0057420192492 0.005557866969 0.0054051377241 0.0052798609077 0.0051796144174 0.0051034295027 
0.0050516623395 0.0050258277416 0.0050283920471 0.0050625290214 0.0051318467386 0.0052400931944 0.0053908463697 0.0055871942854 0.0058314133879 
0.0061246571457 0.006466669459 0.0068555385636 0.0072875065322 0.007755705884 0.0082492264476 0.0087578640604 0.0092696027807 0.009770957723 
0.010247453794 0.010684228305 0.011066733376 0.011381500902 0.011616920219 0.011763968398 0.011816827554 0.011773325146 0.011635143185 
0.011407761354 0.011100126108 0.010724069629 0.010293533949 0.0098236802375 0.0093299744392 0.0088273335685 0.0083293906695 0.0078478944653 
0.0073922118242 0.0085315204577 0.0078360521361 0.007249230927 0.0067576727148 0.0063474902177 0.0060054118054 0.0057194437197 0.0054792462115 
0.0052763188736 0.0051040592445 0.004957743903 0.0048344638117 0.0047330240243 0.0046538026359 0.0045985624853 0.0045702167568 0.0045725560353 
0.0046099456954 0.0046870007371 0.0048082436926 0.0049777520973 0.0051988044827 0.0054735361897 0.0058026183903 0.0061849758713 0.0066175625154 
0.0070949498025 0.0076054455027 0.0081387912887 0.0086825602001 0.0092224699868 0.0097428539935 0.010227278417 0.010659285433 0.011023227565 
0.011305143493 0.011493611873 0.011580510429 0.01156160541 0.0114369035 0.011210716069 0.010891413544 0.01049088281 0.010023737481 
0.0095063623799 0.0089558916808 0.008389219232 0.0078221172839 0.007268500111 0.0067398220916 0.008383030857 0.0076324511337 0.0070016192635 
0.0064749750804 0.0060363494528 0.0056703024051 0.0053629163756 0.0051022270626 0.004878424667 0.0046839157903 0.0045133029998 0.0043633092833 
0.0042326530388 0.0041218716871 0.0040330960194 0.0039697831888 0.003936417285 0.0039381840986 0.003980624369 0.0040692693865 0.0042092643464 
0.0044049868293 0.0046596697958 0.0049750411388 0.0053509957044 0.005785320605 0.0062745697947 0.0068061432387 0.0073698693834 0.0079529787549 
0.0085403898962 0.0091151634546 0.0096591236015 0.010153635157 0.01058050769 0.01092297912 0.011166713335 0.011300732066 0.011318193662 
0.011216933773 0.010999697657 0.010674021376 0.01025175726 0.0097482823659 0.0091814691461 0.0085705257993 0.0079348221162 0.0072928011905 
0.0066610411574 0.006053484616 0.0080997667291 0.0072983484991 0.0066267127299 0.0060672364343 0.005601510245 0.0052119301303 0.0048826495609 
0.0046000970933 0.004353216767 0.0041335370433 0.0039351320718 0.0037545078554 0.0035904285188 0.0034436931855 0.0033168745626 0.0032140286475 
0.0031403804626 0.0031019871769 0.0031053790021 0.0031571793667 0.0032637078295 0.0034305710287 0.0036622493184 0.0039616903701 0.0043299261624 
0.0047657352978 0.0052681381345 0.0058237354694 0.0064226335161 0.00705184293 0.0076955388844 0.0083354806395 0.0089516182934 0.0095228903268 
0.010028192357 0.010447474453 0.010762901447 0.010959990126 0.011028622507 0.010963829739 0.010766250471 0.010442192715 0.010003268462 
0.0094656208188 0.0088488154355 0.0081745105268 0.0074650421133 0.0067420566503 0.0060252928718 0.0053315683326 0.0076692439606 0.0068217781833 
0.0061130978835 0.005523489498 0.0050322639433 0.0046196493224 0.0042679165412 0.0039619845706 0.0036896864406 0.0034418207721 0.0032120686033 
0.0029968238681 0.0027949677568 0.002607607629 0.0024377935397 0.0022902171107 0.0021708912744 0.0020868075016 0.0020455681673 0.0020549937381 
0.0021227063241 0.0022556929095 0.0024598542329 0.0027395492555 0.0030971512079 0.0035326453127 0.0040477141955 0.0046288068535 0.0052664850349 
0.0059477094363 0.0066560384033 0.0073719713093 0.0080735094047 0.0087369518161 0.0093379167896 0.0098525528151 0.010258876807 0.010538148836 
0.010676169062 0.010664368091 0.010500562504 0.010189267151 0.0097414962862 0.0091740434508 0.0085082962997 0.0077687043968 0.0069810607551 
0.0061707703763 0.0053612582859 0.0045726234978 0.0070804146414 0.0061922577536 0.0054506380486 0.0048337104069 0.0043185380961 0.003883273973 
0.0035084382308 0.0031775857035 0.0028775730222 0.0025985749484 0.002333950225 0.0020800219524 0.001835813513 0.0016027638422 0.0013844317104 
0.0011861881694 0.0010148916495 0.00087854028317 0.00078589774289 0.00074609049847 0.00076817570157 0.00086068063157 0.0010311172895 0.0012854783202 
0.0016277202032 0.0020592305975 0.0025843122565 0.0031906198302 0.0038691713455 0.0046071164343 0.0053876250551 0.0061900747906 0.0069905253972 
0.0077624841912 0.0084779593027 0.0091087762265 0.0096281022253 0.010012087488 0.010241496823 0.010303177964 0.010191200042 0.0099075058366 
0.0094619588143 0.0088717301239 0.0081600537785 0.0073544653374 0.0064847109791 0.0055805518376 0.0046696831197 0.0037759427791 0.0063237579718 
0.0054005936493 0.0046302243238 0.0039887492743 0.0034511299644 0.0029936065454 0.002595098073 0.0022379135601 0.0019080138229 0.0015949966377 
0.0012919231458 0.00099506228941 0.00070359969463 0.00041933464751 0.00014637209987 -0.00010919316321 -0.00033960628266 -0.00053580202703 -0.00068777993125 
-0.00078500989598 -0.00081687234087 -0.00077313484896 -0.00064446389076 -0.00042296690696 -0.00010276101454 0.00031941092993 0.00084850644386 0.0014779606958 
0.0021976103936 0.0029953292969 0.003854294578 0.0047530283126 0.005665766563 0.0065631633188 0.0074133457484 0.0081833160276 0.0088406593511 
0.0093554728705 0.0097023815951 0.0098624624387 0.0098248666021 0.0095879245959 0.0091595469932 0.0085568015388 0.0078046484541 0.0069339346374 
0.0059788585676 0.0049741932146 0.0039525735525 0.0029421147678 0.0053911736342 0.0044388281529 0.0036439394743 0.0029807378946 0.002422272116 
0.0019430255789 0.0015204295493 0.0011356211846 0.00077371042254 0.00042374658436 7.8516304335e-05 -0.00026574152393 -0.00060965284899 -0.00095103232613 
-0.0012852060878 -0.0016053351152 -0.0019027449398 -0.0021672693631 -0.0023876171843 -0.0025517712186 -0.0026474277307 -0.0026624814837 -0.0025855568273 
-0.0024065772444 -0.002117347912 -0.0017120704315 -0.0011874916187 -0.00053938851043 0.000219137491 0.0010774708874 0.0020193284305 0.0030227742264 
0.0040604712757 0.0051002827976 0.0061062846725 0.0070402159256 0.0078633515625 0.0085387273962 0.0090335824884 0.0093218189316 0.0093862229306 
0.0092201611255 0.0088284778485 0.0082273838377 0.0074432453857 0.0065103397666 0.0054678064943 0.0043561535293 0.0032137358854 0.0020735942923 
0.0042760318558 0.0033004861207 0.0024854543039 0.0018035106215 0.0012259615923 0.00072566295415 0.00027865240237 -0.00013503518517 -0.0005310872279 
-0.00092096024357 -0.0013121089194 -0.0017083019772 -0.0021099674152 -0.0025145375904 -0.0029167833587 -0.0033091376469 -0.0036820153694 -0.0040241409118 
-0.0043228967795 -0.0045647072855 -0.0047354695849 -0.004821041332 -0.0048077899735 -0.00468320255 -0.0044365453879 -0.0040595497962 -0.0035470993883 
-0.0028889530756 -0.0020969489678 -0.0011799779032 -0.00015326606133 0.00096130508064 0.0021352292322 0.0033338017832 0.0045170233507 0.0056410410882 
0.0066601457011 0.0075292800416 0.0082069357167 0.0086582240261 0.0088578201972 0.0087924155149 0.0084622946202 0.007881706763 0.0070778305123 
0.0060883307155 0.0049577377655 0.0037330850477 0.00245935967 0.0011753150201 0.0029734427465 0.0019808902238 0.0011502715413 0.00045270549581 
-0.00014207583197 -0.00066270182988 -0.0011344088883 -0.0015781676905 -0.0020103905608 -0.0024429935782 -0.0028836536169 -0.0033361540348 -0.0038007543085 
-0.0042745494928 -0.0047518064134 -0.0052242772007 -0.005681499781 -0.0061111006251 -0.0064991175663 -0.0068303605051 -0.0070888262447 -0.0072581813058 
-0.0073223236815 -0.0072660315597 -0.0070757069597 -0.0067402381556 -0.0062520875512 -0.0055946259112 -0.0047777049379 -0.0038073251875 -0.0026968827945 
-0.0014675145853 -0.00014830296377 0.0012239046053 0.0026052080384 0.0039460062076 0.0051930506395 0.0062921978007 0.0071917631869 0.0078462643503 
0.0082202145115 0.0082915177368 0.0080539541624 0.0075182652572 0.0067114806406 0.0056743698132 0.0044572164143 0.0031144231784 0.0016986680791 
0.00025537107753 0.0014805274813 0.00047729730204 -0.00036428947966 -0.00107434402 -0.0016844933351 -0.0022246608482 -0.0027212016566 -0.0031959802698 
-0.0036660688801 -0.0041438228073 -0.0046371595149 -0.0051499254653 -0.0056822800492 -0.0062310589831 -0.0067901028873 -0.0073505526644 -0.0079011238997 
-0.008428378688 -0.0089170157912 -0.0093502002015 -0.0097099522192 -0.0099776145966 -0.010134414166 -0.010162131562 -0.010043889692 -0.0097650682134 
-0.0093143309417 -0.0086735979728 -0.0078442099413 -0.0068293774876 -0.0056399988871 -0.0042956402542 -0.0028251604677 -0.0012668855651 0.00033181026955 
0.0019156619594 0.0034235254545 0.0047912978138 0.0059556965372 0.0068587079366 0.0074523455817 0.0077031901997 0.0075960545889 0.0071360844656 
0.0063487176385 0.0052772003896 0.0039777702083 0.0025130639176 0.00094466127003 -0.00067420435591 -0.00020348545208 -0.0012111423819 -0.0020591861239 
-0.002778659993 -0.0034022698962 -0.0039610036364 -0.0044821711316 -0.0049884358964 -0.0054974980877 -0.0060221716161 -0.0065706716578 -0.0071469898419 
-0.0077512814717 -0.0083802240758 -0.0090273316968 -0.0096832269 -0.010335884136 -0.010970864741 -0.011571566845 -0.012119514423 -0.012594709667 
-0.012976072084 -0.01324198586 -0.01337097365 -0.013342509462 -0.013137975704 -0.012741769837 -0.012135720426 -0.011309406638 -0.010262897887 
-0.0090034902361 -0.0075481033871 -0.0059243312664 -0.0041710423003 -0.0023383572633 -0.00048681030893 0.0013144900541 0.0029908301947 0.00446601609 
0.0056675164292 0.0065322728853 0.0070125859341 0.0070812682254 0.006735138275 0.0059959851706 0.0049084250997 0.0035345823762 0.0019461554634 
0.00021498019867 -0.0015965345048 -0.0020773076988 -0.0030834542569 -0.00393366971 -0.0046595560141 -0.0052945774297 -0.0058705499165 -0.0064155932491 
-0.0069531079368 -0.0075014268688 -0.0080738763452 -0.0086790565147 -0.0093212127564 -0.010000617267 -0.010713916249 -0.011454424825 -0.012212370953 
-0.012975102353 -0.013727278003 -0.01445106972 -0.015126401346 -0.015731253893 -0.016242064795 -0.016634247962 -0.016882857721 -0.016963411344 
-0.016852861807 -0.016530634586 -0.015979328904 -0.015175116728 -0.01411374244 -0.012797674356 -0.011239941079 -0.0094656124161 -0.007512886062 
-0.0054335682455 -0.0032926944784 -0.0011670275389 0.00085779433794 0.0026915885554 0.004245393359 0.0054383657 0.0062051909791 0.0065030548318 
0.0063169808865 0.0056622937864 0.004583230047 0.003147323203 0.0014360329062 -0.0004670802706 -0.0024888389036 -0.0041376644942 -0.0051368736763 
-0.0059852792948 -0.0067146195589 -0.0073587819795 -0.0079501835033 -0.008517632157 -0.0090852331927 -0.0096719887596 -0.010291823767 -0.010953843831 
-0.011662691058 -0.012418910992 -0.013219281322 -0.014057081434 -0.014922302642 -0.015801812969 -0.016679499037 -0.017536412689 -0.018350952917 
-0.019099115125 -0.019754840284 -0.020290496106 -0.020677521097 -0.020887260428 -0.020892023245 -0.020666413672 -0.020189132707 -0.019429518884 
-0.018374115966 -0.017019338013 -0.015373002925 -0.013456234257 -0.011305091252 -0.0089716608089 -0.0065242934162 -0.0040466324829 -0.0016350960573 
0.00060545339026 0.0025679434273 0.0041510350044 0.0052681800324 0.0058567356308 0.0058856581532 0.0053600867411 0.0043212957407 0.0028411555801 
0.001011326898 -0.001071379063 -0.0033211879791 -0.0063793672553 -0.0073669260988 -0.0082099590808 -0.0089398822712 -0.0095906558224 -0.010195073399 
-0.010782528023 -0.011377828412 -0.012000723567 -0.012665871466 -0.013383055538 -0.014157509247 -0.014990256061 -0.015878410334 -0.016815414601 
-0.017791211055 -0.018792360267 -0.019802130108 -0.020800583962 -0.021764700967 -0.022668563129 -0.023483645362 -0.024179245226 -0.024723089617 
-0.025082156427 -0.025223754223 -0.025116930253 -0.024734403004 -0.024045167583 -0.023020224403 -0.021649029821 -0.019932900685 -0.017887501001 
-0.01554507535 -0.0129562593 -0.010191092727 -0.0073387971764 -0.0045058525249 -0.0018119468553 0.00061647893982 0.0026550718852 0.0041923040063 