# vtk DataFile Version 4.1
vtk output
ASCII
DATASET STRUCTURED_GRID
DIMENSIONS 51 51 1
POINTS 2601 float
0 0 0 0.02 0 0 0.04 0 0 
0.06 0 0 0.08 0 0 0.1 0 0 
0.12 0 0 0.14 0 0 0.16 0 0 
0.18 0 0 0.2 0 0 0.22 0 0 
0.24 0 0 0.26 0 0 0.28 0 0 
0.3 0 0 0.32 0 0 0.34 0 0 
0.36 0 0 0.38 0 0 0.4 0 0 
0.42 0 0 0.44 0 0 0.46 0 0 
0.48 0 0 0.5 0 0 0.52 0 0 
0.54 0 0 0.56 0 0 0.58 0 0 
0.6 0 0 0.62 0 0 0.64 0 0 
0.66 0 0 0.68 0 0 0.7 0 0 
0.72 0 0 0.74 0 0 0.76 0 0 
0.78 0 0 0.8 0 0 0.82 0 0 
0.84 0 0 0.86 0 0 0.88 0 0 
0.9 0 0 0.92 0 0 0.94 0 0 
0.96 0 0 0.98 0 0 1 0 0 
0 0.02 0 0.02 0.02 0 0.04 0.02 0 
0.06 0.02 0 0.08 0.02 0 0.1 0.02 0 
0.12 0.02 0 0.14 0.02 0 0.16 0.02 0 
0.18 0.02 0 0.2 0.02 0 0.22 0.02 0 
0.24 0.02 0 0.26 0.02 0 0.28 0.02 0 
0.3 0.02 0 0.32 0.02 0 0.34 0.02 0 
0.36 0.02 0 0.38 0.02 0 0.4 0.02 0 
0.42 0.02 0 0.44 0.02 0 0.46 0.02 0 
0.48 0.02 0 0.5 0.02 0 0.52 0.02 0 
0.54 0.02 0 0.56 0.02 0 0.58 0.02 0 
0.6 0.02 0 0.62 0.02 0 0.64 0.02 0 
0.66 0.02 0 0.68 0.02 0 0.7 0.02 0 
0.72 0.02 0 0.74 0.02 0 0.76 0.02 0 
0.78 0.02 0 0.8 0.02 0 0.82 0.02 0 
0.84 0.02 0 0.86 0.02 0 0.88 0.02 0 
0.9 0.02 0 0.92 0.02 0 0.94 0.02 0 
0.96 0.02 0 0.98 0.02 0 1 0.02 0 
0 0.04 0 0.02 0.04 0 0.04 0.04 0 
0.06 0.04 0 0.08 0.04 0 0.1 0.04 0 
0.12 0.04 0 0.14 0.04 0 0.16 0.04 0 
0.18 0.04 0 0.2 0.04 0 0.22 0.04 0 
0.24 0.04 0 0.26 0.04 0 0.28 0.04 0 
0.3 0.04 0 0.32 0.04 0 0.34 0.04 0 
0.36 0.04 0 0.38 0.04 0 0.4 0.04 0 
0.42 0.04 0 0.44 0.04 0 0.46 0.04 0 
0.48 0.04 0 0.5 0.04 0 0.52 0.04 0 
0.54 0.04 0 0.56 0.04 0 0.58 0.04 0 
0.6 0.04 0 0.62 0.04 0 0.64 0.04 0 
0.66 0.04 0 0.68 0.04 0 0.7 0.04 0 
0.72 0.04 0 0.74 0.04 0 0.76 0.04 0 
0.78 0.04 0 0.8 0.04 0 0.82 0.04 0 
0.84 0.04 0 0.86 0.04 0 0.88 0.04 0 
0.9 0.04 0 0.92 0.04 0 0.94 0.04 0 
0.96 0.04 0 0.98 0.04 0 1 0.04 0 
0 0.06 0 0.02 0.06 0 0.04 0.06 0 
0.06 0.06 0 0.08 0.06 0 0.1 0.06 0 
0.12 0.06 0 0.14 0.06 0 0.16 0.06 0 
0.18 0.06 0 0.2 0.06 0 0.22 0.06 0 
0.24 0.06 0 0.26 0.06 0 0.28 0.06 0 
0.3 0.06 0 0.32 0.06 0 0.34 0.06 0 
0.36 0.06 0 0.38 0.06 0 0.4 0.06 0 
0.42 0.06 0 0.44 0.06 0 0.46 0.06 0 
0.48 0.06 0 0.5 0.06 0 0.52 0.06 0 
0.54 0.06 0 0.56 0.06 0 0.58 0.06 0 
0.6 0.06 0 0.62 0.06 0 0.64 0.06 0 
0.66 0.06 0 0.68 0.06 0 0.7 0.06 0 
0.72 0.06 0 0.74 0.06 0 0.76 0.06 0 
0.78 0.06 0 0.8 0.06 0 0.82 0.06 0 
0.84 0.06 0 0.86 0.06 0 0.88 0.06 0 
0.9 0.06 0 0.92 0.06 0 0.94 0.06 0 
0.96 0.06 0 0.98 0.06 0 1 0.06 0 
0 0.08 0 0.02 0.08 0 0.04 0.08 0 
0.06 0.08 0 0.08 0.08 0 0.1 0.08 0 
0.12 0.08 0 0.14 0.08 0 0.16 0.08 0 
0.18 0.08 0 0.2 0.08 0 0.22 0.08 0 
0.24 0.08 0 0.26 0.08 0 0.28 0.08 0 
0.3 0.08 0 0.32 0.08 0 0.34 0.08 0 
0.36 0.08 0 0.38 0.08 0 0.4 0.08 0 
0.42 0.08 0 0.44 0.08 0 0.46 0.08 0 
0.48 0.08 0 0.5 0.08 0 0.52 0.08 0 
0.54 0.08 0 0.56 0.08 0 0.58 0.08 0 
0.6 0.08 0 0.62 0.08 0 0.64 0.08 0 
0.66 0.08 0 0.68 0.08 0 0.7 0.08 0 
0.72 0.08 0 0.74 0.08 0 0.76 0.08 0 
0.78 0.08 0 0.8 0.08 0 0.82 0.08 0 
0.84 0.08 0 0.86 0.08 0 0.88 0.08 0 
0.9 0.08 0 0.92 0.08 0 0.94 0.08 0 
0.96 0.08 0 0.98 0.08 0 1 0.08 0 
0 0.1 0 0.02 0.1 0 0.04 0.1 0 
0.06 0.1 0 0.08 0.1 0 0.1 0.1 0 
0.12 0.1 0 0.14 0.1 0 0.16 0.1 0 
0.18 0.1 0 0.2 0.1 0 0.22 0.1 0 
0.24 0.1 0 0.26 0.1 0 0.28 0.1 0 
0.3 0.1 0 0.32 0.1 0 0.34 0.1 0 
0.36 0.1 0 0.38 0.1 0 0.4 0.1 0 
0.42 0.1 0 0.44 0.1 0 0.46 0.1 0 
0.48 0.1 0 0.5 0.1 0 0.52 0.1 0 
0.54 0.1 0 0.56 0.1 0 0.58 0.1 0 
0.6 0.1 0 0.62 0.1 0 0.64 0.1 0 
0.66 0.1 0 0.68 0.1 0 0.7 0.1 0 
0.72 0.1 0 0.74 0.1 0 0.76 0.1 0 
0.78 0.1 0 0.8 0.1 0 0.82 0.1 0 
0.84 0.1 0 0.86 0.1 0 0.88 0.1 0 
0.9 0.1 0 0.92 0.1 0 0.94 0.1 0 
0.96 0.1 0 0.98 0.1 0 1 0.1 0 
0 0.12 0 0.02 0.12 0 0.04 0.12 0 
0.06 0.12 0 0.08 0.12 0 0.1 0.12 0 
0.12 0.12 0 0.14 0.12 0 0.16 0.12 0 
0.18 0.12 0 0.2 0.12 0 0.22 0.12 0 
0.24 0.12 0 0.26 0.12 0 0.28 0.12 0 
0.3 0.12 0 0.32 0.12 0 0.34 0.12 0 
0.36 0.12 0 0.38 0.12 0 0.4 0.12 0 
0.42 0.12 0 0.44 0.12 0 0.46 0.12 0 
0.48 0.12 0 0.5 0.12 0 0.52 0.12 0 
0.54 0.12 0 0.56 0.12 0 0.58 0.12 0 
0.6 0.12 0 0.62 0.12 0 0.64 0.12 0 
0.66 0.12 0 0.68 0.12 0 0.7 0.12 0 
0.72 0.12 0 0.74 0.12 0 0.76 0.12 0 
0.78 0.12 0 0.8 0.12 0 0.82 0.12 0 
0.84 0.12 0 0.86 0.12 0 0.88 0.12 0 
0.9 0.12 0 0.92 0.12 0 0.94 0.12 0 
0.96 0.12 0 0.98 0.12 0 1 0.12 0 
0 0.14 0 0.02 0.14 0 0.04 0.14 0 
0.06 0.14 0 0.08 0.14 0 0.1 0.14 0 
0.12 0.14 0 0.14 0.14 0 0.16 0.14 0 
0.18 0.14 0 0.2 0.14 0 0.22 0.14 0 
0.24 0.14 0 0.26 0.14 0 0.28 0.14 0 
0.3 0.14 0 0.32 0.14 0 0.34 0.14 0 
0.36 0.14 0 0.38 0.14 0 0.4 0.14 0 
0.42 0.14 0 0.44 0.14 0 0.46 0.14 0 
0.48 0.14 0 0.5 0.14 0 0.52 0.14 0 
0.54 0.14 0 0.56 0.14 0 0.58 0.14 0 
0.6 0.14 0 0.62 0.14 0 0.64 0.14 0 
0.66 0.14 0 0.68 0.14 0 0.7 0.14 0 
0.72 0.14 0 0.74 0.14 0 0.76 0.14 0 
0.78 0.14 0 0.8 0.14 0 0.82 0.14 0 
0.84 0.14 0 0.86 0.14 0 0.88 0.14 0 
0.9 0.14 0 0.92 0.14 0 0.94 0.14 0 
0.96 0.14 0 0.98 0.14 0 1 0.14 0 
0 0.16 0 0.02 0.16 0 0.04 0.16 0 
0.06 0.16 0 0.08 0.16 0 0.1 0.16 0 
0.12 0.16 0 0.14 0.16 0 0.16 0.16 0 
0.18 0.16 0 0.2 0.16 0 0.22 0.16 0 
0.24 0.16 0 0.26 0.16 0 0.28 0.16 0 
0.3 0.16 0 0.32 0.16 0 0.34 0.16 0 
0.36 0.16 0 0.38 0.16 0 0.4 0.16 0 
0.42 0.16 0 0.44 0.16 0 0.46 0.16 0 
0.48 0.16 0 0.5 0.16 0 0.52 0.16 0 
0.54 0.16 0 0.56 0.16 0 0.58 0.16 0 
0.6 0.16 0 0.62 0.16 0 0.64 0.16 0 
0.66 0.16 0 0.68 0.16 0 0.7 0.16 0 
0.72 0.16 0 0.74 0.16 0 0.76 0.16 0 
0.78 0.16 0 0.8 0.16 0 0.82 0.16 0 
0.84 0.16 0 0.86 0.16 0 0.88 0.16 0 
0.9 0.16 0 0.92 0.16 0 0.94 0.16 0 
0.96 0.16 0 0.98 0.16 0 1 0.16 0 
0 0.18 0 0.02 0.18 0 0.04 0.18 0 
0.06 0.18 0 0.08 0.18 0 0.1 0.18 0 
0.12 0.18 0 0.14 0.18 0 0.16 0.18 0 
0.18 0.18 0 0.2 0.18 0 0.22 0.18 0 
0.24 0.18 0 0.26 0.18 0 0.28 0.18 0 
0.3 0.18 0 0.32 0.18 0 0.34 0.18 0 
0.36 0.18 0 0.38 0.18 0 0.4 0.18 0 
0.42 0.18 0 0.44 0.18 0 0.46 0.18 0 
0.48 0.18 0 0.5 0.18 0 0.52 0.18 0 
0.54 0.18 0 0.56 0.18 0 0.58 0.18 0 
0.6 0.18 0 0.62 0.18 0 0.64 0.18 0 
0.66 0.18 0 0.68 0.18 0 0.7 0.18 0 
0.72 0.18 0 0.74 0.18 0 0.76 0.18 0 
0.78 0.18 0 0.8 0.18 0 0.82 0.18 0 
0.84 0.18 0 0.86 0.18 0 0.88 0.18 0 
0.9 0.18 0 0.92 0.18 0 0.94 0.18 0 
0.96 0.18 0 0.98 0.18 0 1 0.18 0 
0 0.2 0 0.02 0.2 0 0.04 0.2 0 
0.06 0.2 0 0.08 0.2 0 0.1 0.2 0 
0.12 0.2 0 0.14 0.2 0 0.16 0.2 0 
0.18 0.2 0 0.2 0.2 0 0.22 0.2 0 
0.24 0.2 0 0.26 0.2 0 0.28 0.2 0 
0.3 0.2 0 0.32 0.2 0 0.34 0.2 0 
0.36 0.2 0 0.38 0.2 0 0.4 0.2 0 
0.42 0.2 0 0.44 0.2 0 0.46 0.2 0 
0.48 0.2 0 0.5 0.2 0 0.52 0.2 0 
0.54 0.2 0 0.56 0.2 0 0.58 0.2 0 
0.6 0.2 0 0.62 0.2 0 0.64 0.2 0 
0.66 0.2 0 0.68 0.2 0 0.7 0.2 0 
0.72 0.2 0 0.74 0.2 0 0.76 0.2 0 
0.78 0.2 0 0.8 0.2 0 0.82 0.2 0 
0.84 0.2 0 0.86 0.2 0 0.88 0.2 0 
0.9 0.2 0 0.92 0.2 0 0.94 0.2 0 
0.96 0.2 0 0.98 0.2 0 1 0.2 0 
0 0.22 0 0.02 0.22 0 0.04 0.22 0 
0.06 0.22 0 0.08 0.22 0 0.1 0.22 0 
0.12 0.22 0 0.14 0.22 0 0.16 0.22 0 
0.18 0.22 0 0.2 0.22 0 0.22 0.22 0 
0.24 0.22 0 0.26 0.22 0 0.28 0.22 0 
0.3 0.22 0 0.32 0.22 0 0.34 0.22 0 
0.36 0.22 0 0.38 0.22 0 0.4 0.22 0 
0.42 0.22 0 0.44 0.22 0 0.46 0.22 0 
0.48 0.22 0 0.5 0.22 0 0.52 0.22 0 
0.54 0.22 0 0.56 0.22 0 0.58 0.22 0 
0.6 0.22 0 0.62 0.22 0 0.64 0.22 0 
0.66 0.22 0 0.68 0.22 0 0.7 0.22 0 
0.72 0.22 0 0.74 0.22 0 0.76 0.22 0 
0.78 0.22 0 0.8 0.22 0 0.82 0.22 0 
0.84 0.22 0 0.86 0.22 0 0.88 0.22 0 
0.9 0.22 0 0.92 0.22 0 0.94 0.22 0 
0.96 0.22 0 0.98 0.22 0 1 0.22 0 
0 0.24 0 0.02 0.24 0 0.04 0.24 0 
0.06 0.24 0 0.08 0.24 0 0.1 0.24 0 
0.12 0.24 0 0.14 0.24 0 0.16 0.24 0 
0.18 0.24 0 0.2 0.24 0 0.22 0.24 0 
0.24 0.24 0 0.26 0.24 0 0.28 0.24 0 
0.3 0.24 0 0.32 0.24 0 0.34 0.24 0 
0.36 0.24 0 0.38 0.24 0 0.4 0.24 0 
0.42 0.24 0 0.44 0.24 0 0.46 0.24 0 
0.48 0.24 0 0.5 0.24 0 0.52 0.24 0 
0.54 0.24 0 0.56 0.24 0 0.58 0.24 0 
0.6 0.24 0 0.62 0.24 0 0.64 0.24 0 
0.66 0.24 0 0.68 0.24 0 0.7 0.24 0 
0.72 0.24 0 0.74 0.24 0 0.76 0.24 0 
0.78 0.24 0 0.8 0.24 0 0.82 0.24 0 
0.84 0.24 0 0.86 0.24 0 0.88 0.24 0 
0.9 0.24 0 0.92 0.24 0 0.94 0.24 0 
0.96 0.24 0 0.98 0.24 0 1 0.24 0 
0 0.26 0 0.02 0.26 0 0.04 0.26 0 
0.06 0.26 0 0.08 0.26 0 0.1 0.26 0 
0.12 0.26 0 0.14 0.26 0 0.16 0.26 0 
0.18 0.26 0 0.2 0.26 0 0.22 0.26 0 
0.24 0.26 0 0.26 0.26 0 0.28 0.26 0 
0.3 0.26 0 0.32 0.26 0 0.34 0.26 0 
0.36 0.26 0 0.38 0.26 0 0.4 0.26 0 
0.42 0.26 0 0.44 0.26 0 0.46 0.26 0 
0.48 0.26 0 0.5 0.26 0 0.52 0.26 0 
0.54 0.26 0 0.56 0.26 0 0.58 0.26 0 
0.6 0.26 0 0.62 0.26 0 0.64 0.26 0 
0.66 0.26 0 0.68 0.26 0 0.7 0.26 0 
0.72 0.26 0 0.74 0.26 0 0.76 0.26 0 
0.78 0.26 0 0.8 0.26 0 0.82 0.26 0 
0.84 0.26 0 0.86 0.26 0 0.88 0.26 0 
0.9 0.26 0 0.92 0.26 0 0.94 0.26 0 
0.96 0.26 0 0.98 0.26 0 1 0.26 0 
0 0.28 0 0.02 0.28 0 0.04 0.28 0 
0.06 0.28 0 0.08 0.28 0 0.1 0.28 0 
0.12 0.28 0 0.14 0.28 0 0.16 0.28 0 
0.18 0.28 0 0.2 0.28 0 0.22 0.28 0 
0.24 0.28 0 0.26 0.28 0 0.28 0.28 0 
0.3 0.28 0 0.32 0.28 0 0.34 0.28 0 
0.36 0.28 0 0.38 0.28 0 0.4 0.28 0 
0.42 0.28 0 0.44 0.28 0 0.46 0.28 0 
0.48 0.28 0 0.5 0.28 0 0.52 0.28 0 
0.54 0.28 0 0.56 0.28 0 0.58 0.28 0 
0.6 0.28 0 0.62 0.28 0 0.64 0.28 0 
0.66 0.28 0 0.68 0.28 0 0.7 0.28 0 
0.72 0.28 0 0.74 0.28 0 0.76 0.28 0 
0.78 0.28 0 0.8 0.28 0 0.82 0.28 0 
0.84 0.28 0 0.86 0.28 0 0.88 0.28 0 
0.9 0.28 0 0.92 0.28 0 0.94 0.28 0 
0.96 0.28 0 0.98 0.28 0 1 0.28 0 
0 0.3 0 0.02 0.3 0 0.04 0.3 0 
0.06 0.3 0 0.08 0.3 0 0.1 0.3 0 
0.12 0.3 0 0.14 0.3 0 0.16 0.3 0 
0.18 0.3 0 0.2 0.3 0 0.22 0.3 0 
0.24 0.3 0 0.26 0.3 0 0.28 0.3 0 
0.3 0.3 0 0.32 0.3 0 0.34 0.3 0 
0.36 0.3 0 0.38 0.3 0 0.4 0.3 0 
0.42 0.3 0 0.44 0.3 0 0.46 0.3 0 
0.48 0.3 0 0.5 0.3 0 0.52 0.3 0 
0.54 0.3 0 0.56 0.3 0 0.58 0.3 0 
0.6 0.3 0 0.62 0.3 0 0.64 0.3 0 
0.66 0.3 0 0.68 0.3 0 0.7 0.3 0 
0.72 0.3 0 0.74 0.3 0 0.76 0.3 0 
0.78 0.3 0 0.8 0.3 0 0.82 0.3 0 
0.84 0.3 0 0.86 0.3 0 0.88 0.3 0 
0.9 0.3 0 0.92 0.3 0 0.94 0.3 0 
0.96 0.3 0 0.98 0.3 0 1 0.3 0 
0 0.32 0 0.02 0.32 0 0.04 0.32 0 
0.06 0.32 0 0.08 0.32 0 0.1 0.32 0 
0.12 0.32 0 0.14 0.32 0 0.16 0.32 0 
0.18 0.32 0 0.2 0.32 0 0.22 0.32 0 
0.24 0.32 0 0.26 0.32 0 0.28 0.32 0 
0.3 0.32 0 0.32 0.32 0 0.34 0.32 0 
0.36 0.32 0 0.38 0.32 0 0.4 0.32 0 
0.42 0.32 0 0.44 0.32 0 0.46 0.32 0 
0.48 0.32 0 0.5 0.32 0 0.52 0.32 0 
0.54 0.32 0 0.56 0.32 0 0.58 0.32 0 
[...]
CELL_DATA 2500
FIELD FieldData 1
pressure 1 2500 double
0.0061768816622 0.0061098337667 0.0059211566593 0.0056478101294 0.0053290515362 0.0049987158887 0.0046833589335 0.0044018939275 0.0041663661868 
0.0039838397182 0.0038586292583 0.0037938807124 0.0037921100216 0.003855069155 0.0039835571674 0.0041775050576 0.0044362563699 0.0047587928516 
0.0051437411563 0.0055891657893 0.0060922551583 0.0066490125241 0.0072540180151 0.0079002799017 0.0085791619246 0.0092803553833 0.0099915027756 
0.010699373747 0.011390051334 0.012049033821 0.012661647543 0.013213566277 0.013691401428 0.01408332688 0.014379702076 0.014573656358 
0.014661598156 0.014643616169 0.014523746727 0.0143100923 0.014014790626 0.013653850261 0.013246882654 0.012816767659 0.012389286015 
0.011992620234 0.011656592464 0.011410739542 0.011279148105 0.011266730351 0.0062435405743 0.0061787128721 0.0060178781493 0.0057896908309 
0.0055242363179 0.0052487354733 0.0049847084747 0.0047473635517 0.004546879284 0.0043903636031 0.0042832634822 0.0042298167915 0.0042329634816 
0.0042943232383 0.0044144853138 0.0045934464886 0.0048309168256 0.0051263552808 0.005478782307 0.0058865002332 0.0063468314582 0.0068559242355 
0.0074086285768 0.0079984263055 0.0086174018564 0.0092562576423 0.009903422151 0.010546946451 0.011174292085 0.011772401188 0.012328108762 
0.012828628012 0.013262086441 0.013618086199 0.013888259234 0.014066784207 0.014150830983 0.014140901412 0.014041042068 0.013858915303 
0.013605727777 0.013296027208 0.012947385609 0.012579985829 0.012216108258 0.011879462426 0.011594168265 0.011383183724 0.011265673357 
0.011254303641 0.006439444602 0.0063435378433 0.0061778967421 0.0059651523537 0.0057285568902 0.0054882797591 0.0052596770629 0.0050538642066 
0.0048793416347 0.0047431437867 0.0046509924868 0.0046069856338 0.0046135513138 0.0046718897178 0.0047826038123 0.0049461216489 0.005162751519 
0.0054324700802 0.0057546342572 0.0061277495453 0.0065493279791 0.0070158061811 0.0075224841375 0.0080634671557 0.008631619889 0.0092185629941 
0.0098132557044 0.010404772429 0.010981598319 0.011531718464 0.012043022344 0.012503764745 0.012903068379 0.013231448262 0.013481329995 
0.013647527906 0.013727648093 0.013722385647 0.013635693294 0.013474809161 0.013250142041 0.012975021153 0.012665323687 0.012338993615 
0.012015456008 0.011714911664 0.011457470579 0.011262160042 0.011146031742 0.011124519983 0.00672579387 0.0065740040969 0.0063812958957 
0.006163981897 0.0059380208037 0.0057163012325 0.0055085911153 0.0053228700008 0.005166323558 0.0050452524254 0.0049644383676 0.0049268707416 
0.0049341640115 0.0049873139625 0.0050872593203 0.0052349968212 0.0054313514466 0.0056766511563 0.0059704889932 0.0063116124799 0.0066978823147 
0.0071262278928 0.0075925675217 0.008091707634 0.0086172587705 0.0091616094008 0.0097141016219 0.010264573403 0.010802230139 0.011315758978 
0.01179371855 0.012224984191 0.012599236629 0.012907473301 0.013142511315 0.013299446148 0.013376031433 0.013372950106 0.013293954533 
0.013145861946 0.012938400788 0.01268391282 0.012396925464 0.01209361503 0.011791183516 0.011507172427 0.011258747128 0.011062042567 
0.010931780601 0.010881606202 0.0070614403407 0.0068413168968 0.0066086339437 0.0063731637706 0.0061435301447 0.0059264106929 0.0057275539121 
0.0055527176634 0.0054075004908 0.0052964736308 0.0052226161388 0.0051875537004 0.0051923120542 0.0052379799234 0.005325914122 0.0054575277242 
0.0056339297803 0.0058556539177 0.0061225482159 0.0064337580609 0.0067876974183 0.0071819545843 0.0076131471243 0.0080767748816 0.0085671159524 
0.0090771936446 0.0095966591326 0.01011587337 0.010624517043 0.011111692106 0.011566300374 0.011977484078 0.012335114309 0.012630302737 
0.012855903558 0.01300697 0.013081131135 0.013078857766 0.013003591534 0.012861719457 0.012662386597 0.012417152791 0.012139513385 
0.011844315054 0.011547105538 0.011263462081 0.011008350857 0.010795586414 0.010637476937 0.010544676909 0.0074120650426 0.0071196717874 
0.0068400996022 0.0065768136235 0.0063323674984 0.0061091498099 0.0059102509827 0.0057393282031 0.0055996658364 0.0054934092714 0.0054215910358 
0.0053847753603 0.0053837368387 0.0054197400495 0.0054943788575 0.0056092114502 0.0057654546332 0.0059638510535 0.0062046534794 0.0064876020536 
0.0068118171523 0.007175617554 0.0075763218029 0.0080100835627 0.0084717851223 0.0089549979807 0.00944966701 0.0099464480342 0.010435300383 
0.010905504851 0.011346036203 0.011746004738 0.012095151099 0.012384368376 0.012606218387 0.012755406092 0.012829174857 0.012827586105 
0.012753651866 0.012613298445 0.012415153 0.012170162122 0.011891068293 0.011591784147 0.011286714343 0.010990079703 0.010715296729 
0.01047445431 0.010277891143 0.010133757968 0.0077503433292 0.0073858466775 0.0070554404962 0.0067574209778 0.0064903127182 0.006253842156 
0.0060488538544 0.0058763960457 0.005736890348 0.0056300346439 0.0055553328805 0.0055127205241 0.0055028606609 0.0055270300337 0.0055867811227 
0.0056836282965 0.0058188930486 0.0059936749526 0.0062088221605 0.0064648079237 0.0067615152849 0.0070979938128 0.007472245114 0.007881057135 
0.0083198891658 0.0087828137623 0.0092601039517 0.0097424935805 0.010220071031 0.010682107482 0.011117422862 0.011514830644 0.011863646257 
0.012154232569 0.01237854785 0.012530656557 0.012607159978 0.012607504364 0.012534130256 0.012392438476 0.01219056413 0.011938969562 
0.011649886102 0.011336650801 0.011012996173 0.010692353956 0.01038722612 0.010108651195 0.00986574299 0.0096651877202 0.0080535565428 
0.0076182710299 0.0072346450973 0.0068975968489 0.0066033216152 0.0063494502587 0.0061341912145 0.0059555065938 0.0058110099235 0.0056984763279 
0.005616429549 0.0055644072144 0.0055428498089 0.0055527889828 0.0055955535456 0.0056726165906 0.0057855590382 0.0059360292475 0.0061255997055 
0.0063555187628 0.0066264262707 0.0069380958136 0.0072892207132 0.0076772362954 0.0080981808434 0.0085466122618 0.0090132247172 0.00948862821 
0.0099629314977 0.010425241083 0.010864020477 0.01126754415 0.011624429791 0.011924219559 0.012157972384 0.012318823508 0.012402463586 
0.012407490452 0.012335593047 0.012191539069 0.011982955088 0.011719909094 0.011414327346 0.01107929674 0.010728318014 0.010374577237 
0.010030292532 0.0097061629583 0.0094108975958 0.0091507340285 0.0083013473534 0.0077967128402 0.0073589868054 0.0069812840074 0.0066580729589 
0.0063845155773 0.0061556793074 0.005966488 0.0058123294874 0.005689705332 0.0055964871813 0.005531769897 0.0054955495995 0.0054884495605 
0.0055115933772 0.0055665843007 0.0056554662352 0.0057805655841 0.005944212677 0.0061484186886 0.0063945786246 0.0066832168631 0.0070137591611 
0.0073843257539 0.0077915628604 0.0082305334829 0.008692513856 0.0091677977087 0.009646433109 0.010117230906 0.010568122621 0.010986630465 
0.011360429131 0.011677967661 0.011929112287 0.012105764672 0.012202404705 0.012216506183 0.012148778757 0.012003200977 0.011786827885 
0.011509380016 0.011182646219 0.010819755403 0.010434388771 0.010040007156 0.0096491571132 0.0092728888816 0.0089202741965 0.0085979547784 
0.0084746775022 0.0079025766771 0.0074116730352 0.0069939007082 0.0066415910529 0.0063468274923 0.0061014874138 0.005898023971 0.0057303085854 
0.0055939777342 0.0054862664064 0.0054056387258 0.0053515025486 0.0053241094793 0.0053245713582 0.0053548458189 0.0054175800231 0.005515811833 
0.0056526136189 0.0058307600665 0.0060524396993 0.0063189875575 0.0066306249429 0.0069862195464 0.0073830880546 0.0078168532334 0.0082795964907 
0.0087611066055 0.0092513162749 0.0097386441084 0.010210354106 0.010653039755 0.011053211377 0.011397957604 0.011675644209 0.011876603981 
0.011993762839 0.012023143672 0.011964192827 0.011819885245 0.011596584214 0.011303657317 0.010952878899 0.010557675777 0.010132292527 
0.0096909587328 0.0092471311296 0.0088128542821 0.00839824101 0.0080110219215 0.0085558369178 0.0079192169229 0.0073777251418 0.0069217361178 
0.0065407032968 0.0062234228605 0.0059590655881 0.0057383339882 0.0055540438853 0.00540102503 0.0052757081365 0.005175791756 0.0051001437352 
0.0050488571766 0.0050232799667 0.0050258824659 0.0050599558935 0.005129234305 0.0052375344778 0.0053884404542 0.0055850073184 0.0058294620241 
0.0061229081346 0.0064650545985 0.0068539811769 0.0072859475749 0.0077541180659 0.0082476069345 0.0087562214775 0.0092679447535 0.0097692863393 
0.01024576785 0.010682527494 0.011065020847 0.011379783643 0.011615208269 0.011762273945 0.011815164327 0.01177170795 0.011633587082 
0.011406280395 0.011098731933 0.010722770432 0.010292334137 0.0098225807208 0.0093289731277 0.0088264259413 0.0083285700127 0.0078471523311 
0.007391538482 0.0085287960559 0.007831841115 0.0072433554356 0.0067513296752 0.0063419426646 0.0060010548349 0.005715823109 0.0054756903646 
0.0052725017065 0.0051001152234 0.0049540139492 0.0048311764609 0.0047301543576 0.0046511500922 0.0045959253107 0.0045675147601 0.0045698412853 
0.0046073385972 0.0046846180808 0.0048061546127 0.0049759630515 0.0051972651266 0.0054721617623 0.0058013214851 0.0061836934693 0.006616265859 
0.0070936374767 0.0076041240753 0.0081374638241 0.0086812224567 0.0092211135452 0.0097414711687 0.010225865375 0.010657842992 0.011021760885 
0.011303661583 0.011492127175 0.011579038303 0.011560163204 0.011435509156 0.011209386509 0.010890163302 0.010489723168 0.010022676209 
0.0095054037993 0.0089550368424 0.0083884661931 0.0078214613288 0.0072679343361 0.0067393381436 0.008379313982 0.0076270570743 0.0069953979659 
0.0064693390895 0.006031970847 0.0056668587925 0.0053596620361 0.0050986744543 0.0048745984129 0.0046801501656 0.0045098890374 0.0043602938143 
0.0042298797423 0.0041191526572 0.0040303497995 0.0039670597712 0.0039338390984 0.0039358717583 0.00397864867 0.0040676344789 0.0042079149578 
0.0044038338173 0.0046586244165 0.0049740419896 0.0053500156974 0.0057843553931 0.0062736225007 0.0068052087922 0.0073689350458 0.0079520280032 
0.0085394072002 0.00911413716 0.0096580469593 0.01015250657 0.010579330828 0.010921762831 0.011165471128 0.011299481152 0.011316953582 
0.011215724883 0.010998539674 0.010672932194 0.010250752043 0.0097473729828 0.0091806637897 0.0085698288466 0.0079342342812 0.0072923199002 
0.0066606612539 0.0060531992775 0.0080946765815 0.0072924058846 0.006621157105 0.0060628980483 0.0055981965551 0.0052088683055 0.0048792293868 
0.0045962543001 0.0043492970402 0.0041299164438 0.0039319482725 0.0037516533743 0.0035877163656 0.0034410159125 0.003314252942 0.0032115657984 
0.0031381900316 0.0031001420679 0.0031038898997 0.0031559986508 0.0032627540461 0.0034297631545 0.0036615327756 0.0039610417124 0.00432933953 
0.0047652050744 0.0052676503532 0.005823267411 0.0064221597809 0.0070513398587 0.0076949866886 0.0083348642678 0.0089509281073 0.0095221227572 
0.010027350171 0.01044656644 0.010761941596 0.01095899658 0.011027616318 0.01096283359 0.010765287339 0.010441284539 0.010002434878 
0.0094648781597 0.0088481760064 0.0081739823293 0.0074646289539 0.0067417585855 0.0060251069099 0.0053314894035 0.0076633008054 0.006816165165 
0.0061086586199 0.0055201420649 0.0050292367577 0.0046162349327 0.00426396773 0.0039578565184 0.0036858418701 0.0034384909116 0.0032091902627 
0.0029941969808 0.0027924408386 0.0026051569031 0.0024354937947 0.0022881727263 0.0021691805118 0.0020854544104 0.002044540636 0.0020542246526 
0.002122126833 0.0022552577198 0.0024595447414 0.0027393584835 0.0030970668449 0.003532643049 0.0040477618139 0.0046288702613 0.0052665324668 
0.0059477128808 0.0066559742021 0.0073718210406 0.0080732608392 0.0087365994443 0.0093374617672 0.0098520026077 0.010258244667 0.01053745312 
0.010675432241 0.010663615463 0.010499820679 0.01018856239 0.009740852916 0.0091734825815 0.0085078348671 0.0077683547362 0.0069808305193 
0.0061706628445 0.0053612730292 0.0045727574228 0.0070744972763 0.0061874714249 0.0054470575535 0.004830598189 0.0043150946812 0.0038792406187 
0.0035041429346 0.0031735567366 0.0028741314677 0.0025957029733 0.0023314315214 0.0020776554407 0.0018335287873 0.0016006108108 0.0013825120098 
0.0011845916264 0.0010136596164 0.00087765730999 0.00078530985721 0.00074573873354 0.00076802236335 0.00086071191555 0.0010313268434 0.0012858500665 
0.0016282233382 0.0020598250489 0.0025849544503 0.0031912728161 0.0038697990419 0.0046076863195 0.005388109445 0.0061904518923 0.0069907798272 
0.0077626071528 0.0084779487471 0.0091086370915 0.0096278464387 0.010011733457 0.010241068377 0.0103027029 0.010190708461 0.0099070283389 
0.0094615247359 0.0088713659946 0.0081597820172 0.0073543034786 0.0064846712396 0.005580641218 0.0046699041113 0.0037762945985 0.0063185205173 
0.0053966285102 0.0046269740472 0.0039853417564 0.003447148519 0.0029892808051 0.002590973582 0.0022343920352 0.0019051371419 0.0015925483841 
0.0012896622889 0.00099287888602 0.00070152770363 0.00041748287405 0.00014484926248 -0.00011032618215 -0.00034035137241 -0.00053620684112 -0.00068790121843 
-0.0007848831764 -0.0008165079884 -0.00077253623166 -0.00064364644147 -0.00042196324619 -0.00010161405584 0.00032065728957 0.00084979393676 0.0014792596737 
0.0021988775116 0.0029965269253 0.0038553907975 0.0047539970275 0.0056665876243 0.0065638231028 0.0074138380774 0.008183642906 0.0088408310695 
0.0093555073737 0.0097023033951 0.0098623012448 0.0098246557514 0.0095876992126 0.0091593419732 0.0085566495866 0.0078045782532 0.0069339696136 
0.0059790160873 0.0049744845235 0.0039530045688 0.0029426875401 0.0053868495454 0.0044354353958 0.0036406721864 0.0029769975393 0.0024181106257 
0.0019389352685 0.0015168706214 0.0011327153271 0.00077127336556 0.00042151995506 7.6361408033e-05 -0.00026780065305 -0.00061149462305 -0.00095252436693 
-0.001286266101 -0.0016059538687 -0.0019029703527 -0.0021671644509 -0.0023872220842 -0.0025510951788 -0.0026464687407 -0.0026612492633 -0.0025840804796 
-0.0024048991639 -0.0021155155328 -0.0017101326508 -0.0011854996948 -0.00053738752779 0.00022110142198 0.0010793560061 0.0020210979026 0.0030243962225 
0.0040619197189 0.0051015387252 0.0061073375482 0.0070410643277 0.0078640031997 0.0085391986086 0.0090338975033 0.0093220088292 0.0093863241859 
0.0092202136068 0.0088285223999 0.0082274598061 0.00744338824 0.0065105794101 0.005468166117 0.0043566493627 0.0032143780076 0.0020743882206 
0.0042725532699 0.0032974303966 0.0024821148759 0.0017997060562 0.0012220564941 0.00072213887117 0.00027572301724 -0.00013748691863 -0.00053330959368 
-0.00092311130226 -0.0013141763847 -0.0017101551356 -0.0021114513316 -0.0025155470099 -0.0029172959729 -0.0033092021231 -0.0036817047838 -0.0040235048619 
-0.0043219458573 -0.004563432617 -0.0047338708891 -0.0048191392711 -0.004805621788 -0.0046808139225 -0.0044339865213 -0.0040568741816 -0.0035443622998 
-0.0028862031246 -0.002094237948 -0.0011773527141 -0.00015076957341 0.00096363463181 0.0021373597437 0.0033357088654 0.0045186914785 0.0056424642231 
0.0066613276079 0.0075302343383 0.0082076856174 0.0086588015651 0.0088582647348 0.0087927715008 0.0084626088067 0.0078820253094 0.0070781961115 
0.0060887804504 0.0049583015352 0.0037337849748 0.0024602107812 0.0011763269197 0.0029706079768 0.0019780247663 0.0011469636436 0.0004491300461 
-0.00014546312354 -0.00066559834102 -0.0011368383833 -0.0015803447476 -0.0020124880849 -0.0024450212045 -0.0028854845227 -0.0033376185331 -0.0038017240927 
-0.0042749827808 -0.0047517448657 -0.0052237997714 -0.0056806658082 -0.0061099237782 -0.0064975821901 -0.0068284542453 -0.0070865584283 -0.0072555813986 
-0.0073194331734 -0.0072628994737 -0.0070723881014 -0.0067367901521 -0.006248566286 -0.0055910901452 -0.0047742082883 -0.0038039196583 -0.0026936174302 
-0.0014644337927 -0.00014544483825 0.0012265096291 0.0026075383051 0.0039480498678 0.0051948065881 0.0062936762682 0.0071929857689 0.0078472633522 
0.0082210314441 0.0082922010006 0.0080545560758 0.0075188388522 0.0067120763014 0.0056750325724 0.0044579837659 0.003115323952 0.0016997229182 
0.00025659426524 0.0014780951298 0.00047454488044 -0.00036742581522 -0.0010774851266 -0.0016872669583 -0.0022269845634 -0.0027232391206 -0.0031979188 
-0.003667955394 -0.0041455532149 -0.0046385620539 -0.0051508512847 -0.0056826603189 -0.0062309152808 -0.0067895088412 -0.0073495725954 -0.0078997749827 
-0.008426640105 -0.0089148635784 -0.0093476318229 -0.0097069885451 -0.0099742917554 -0.01013077814 -0.010158236174 -0.010039793824 -0.0097608317423 
-0.0093100121448 -0.0086692575509 -0.0078399057683 -0.0068251674466 -0.0056359380498 -0.0042917791048 -0.002821543532 -0.0012635500858 0.00033483584778 
0.0019183595916 0.00342588886 0.0047933333087 0.0059574232248 0.0068601572753 0.0074535601058 0.007704221358 0.0075969597429 0.007136923425 
0.006349548757 0.0052780771687 0.0039787383347 0.0025141595396 0.00094591125167 -0.00067278037794 -0.00020573015494 -0.0012137833088 -0.002061995974 
-0.0027812273738 -0.0034044048658 -0.0039628049435 -0.0044838388561 -0.0049900692235 -0.005499035728 -0.0060234544212 -0.0065715356066 -0.007147334354 
-0.0077510955553 -0.0083795624604 -0.0090262559084 -0.0096817568863 -0.010333996446 -0.010968526012 -0.011568763728 -0.012116259547 -0.012591033483 
-0.012972016109 -0.013237600375 -0.013366315399 -0.013337638079 -0.013132950826 -0.012736649799 -0.01213057549 -0.011304291974 -0.010257878282 
-0.0089986267508 -0.0075434527142 -0.005919944556 -0.0041669635087 -0.0023346212412 -0.00048344098487 0.0013174810873 0.0029934446263 0.0044682693865 
0.0056694378725 0.0065339047364 0.0070139815756 0.0070824892175 0.0067362506689 0.0059970550597 0.0049095145014 0.0035357454637 0.001947436255 
0.00021641249487 -0.0015949249388 -0.0020794721027 -0.0030858838302 -0.0039359849448 -0.0046614634682 -0.0052960940103 -0.0058718780088 -0.0064168924861 
-0.0069543774917 -0.0075025351406 -0.0080746520743 -0.0086793678571 -0.00932100929 -0.0099999242573 -0.010712784895 -0.011452876784 -0.012210382953 
-0.012972634215 -0.013724306639 -0.014447599822 -0.015122457522 -0.015726872223 -0.016237289957 -0.016629131732 -0.016877456288 -0.016957783153 
-0.016847067258 -0.016524736475 -0.015973393187 -0.015169208825 -0.014107930687 -0.012792024938 -0.011234516333 -0.0094604692034 -0.0075080738603 
-0.005429127292 -0.0032886541497 -0.0011634049751 0.00086099544726 0.0026943789727 0.0042477989255 0.005440427009 0.006206961896 0.0065045997282 
0.0063183708816 0.0056636019027 0.0045845264846 0.0031486708035 0.0014374841557 -0.00046548384711 -0.002487064683 -0.0041396961851 -0.0051389143651 
-0.0059869685607 -0.0067158680452 -0.0073597671181 -0.0079511193116 -0.0085185902822 -0.0090861246903 -0.0096726458045 -0.010292089072 -0.010953627876 
-0.011661984942 -0.012417750602 -0.013217689431 -0.014055037808 -0.014919762449 -0.015798743191 -0.016675895321 -0.017532292994 -0.018346347065 
-0.019094060872 -0.019749382511 -0.020284685184 -0.02067141135 -0.020880910133 -0.020885494944 -0.020659774033 -0.020182452769 -0.019422860909 
-0.018367555697 -0.017012946418 -0.015366846555 -0.013450373864 -0.011299580215 -0.0089665437243 -0.0065196046895 -0.0040423948087 -0.0016313188303 
0.00060877554406 0.002570831786 0.0041535269305 0.0052703280039 0.0058586049007 0.0058873232098 0.0053616263317 0.0043227876902 0.00284267146 
0.0010129281043 -0.0010696426863 -0.0033192764114 -0.0063810858024 -0.0073684053428 -0.0082109890251 -0.0089405706062 -0.0095912431528 -0.010195704485 
-0.010783170932 -0.011378332754 -0.01200091695 -0.012665631351 -0.013382339384 -0.014156335123 -0.014988647526 -0.015876353049 -0.016812861146 
-0.017788117143 -0.018788709463 -0.019797931565 -0.020795860293 -0.02175948232 -0.022662886643 -0.023477554505 -0.024172788793 -0.024716321881 
-0.025075137576 -0.025216549639 -0.025109608062 -0.024727029974 -0.024037825661 -0.023012986175 -0.021641967493 -0.019926082579 -0.017880989788 
-0.015538926874 -0.012950521454 -0.010185804063 -0.007333985252 -0.0045015321438 -0.0018081183485 0.00061983126324 0.0026579805021 0.0041948179445 