# vtk DataFile Version 4.1
vtk output
ASCII
DATASET STRUCTURED_GRID
DIMENSIONS 51 51 1
POINTS 2601 float
0 0 0 0.02 0 0 0.04 0 0 
0.06 0 0 0.08 0 0 0.1 0 0 
0.12 0 0 0.14 0 0 0.16 0 0 
0.18 0 0 0.2 0 0 0.22 0 0 
0.24 0 0 0.26 0 0 0.28 0 0 
0.3 0 0 0.32 0 0 0.34 0 0 
0.36 0 0 0.38 0 0 0.4 0 0 
0.42 0 0 0.44 0 0 0.46 0 0 
0.48 0 0 0.5 0 0 0.52 0 0 
0.54 0 0 0.56 0 0 0.58 0 0 
0.6 0 0 0.62 0 0 0.64 0 0 
0.66 0 0 0.68 0 0 0.7 0 0 
0.72 0 0 0.74 0 0 0.76 0 0 
0.78 0 0 0.8 0 0 0.82 0 0 
0.84 0 0 0.86 0 0 0.88 0 0 
0.9 0 0 0.92 0 0 0.94 0 0 
0.96 0 0 0.98 0 0 1 0 0 
0 0.02 0 0.02 0.02 0 0.04 0.02 0 
0.06 0.02 0 0.08 0.02 0 0.1 0.02 0 
0.12 0.02 0 0.14 0.02 0 0.16 0.02 0 
0.18 0.02 0 0.2 0.02 0 0.22 0.02 0 
0.24 0.02 0 0.26 0.02 0 0.28 0.02 0 
0.3 0.02 0 0.32 0.02 0 0.34 0.02 0 
0.36 0.02 0 0.38 0.02 0 0.4 0.02 0 
0.42 0.02 0 0.44 0.02 0 0.46 0.02 0 
0.48 0.02 0 0.5 0.02 0 0.52 0.02 0 
0.54 0.02 0 0.56 0.02 0 0.58 0.02 0 
0.6 0.02 0 0.62 0.02 0 0.64 0.02 0 
0.66 0.02 0 0.68 0.02 0 0.7 0.02 0 
0.72 0.02 0 0.74 0.02 0 0.76 0.02 0 
0.78 0.02 0 0.8 0.02 0 0.82 0.02 0 
0.84 0.02 0 0.86 0.02 0 0.88 0.02 0 
0.9 0.02 0 0.92 0.02 0 0.94 0.02 0 
0.96 0.02 0 0.98 0.02 0 1 0.02 0 
0 0.04 0 0.02 0.04 0 0.04 0.04 0 
0.06 0.04 0 0.08 0.04 0 0.1 0.04 0 
0.12 0.04 0 0.14 0.04 0 0.16 0.04 0 
0.18 0.04 0 0.2 0.04 0 0.22 0.04 0 
0.24 0.04 0 0.26 0.04 0 0.28 0.04 0 
0.3 0.04 0 0.32 0.04 0 0.34 0.04 0 
0.36 0.04 0 0.38 0.04 0 0.4 0.04 0 
0.42 0.04 0 0.44 0.04 0 0.46 0.04 0 
0.48 0.04 0 0.5 0.04 0 0.52 0.04 0 
0.54 0.04 0 0.56 0.04 0 0.58 0.04 0 
0.6 0.04 0 0.62 0.04 0 0.64 0.04 0 
0.66 0.04 0 0.68 0.04 0 0.7 0.04 0 
0.72 0.04 0 0.74 0.04 0 0.76 0.04 0 
0.78 0.04 0 0.8 0.04 0 0.82 0.04 0 
0.84 0.04 0 0.86 0.04 0 0.88 0.04 0 
0.9 0.04 0 0.92 0.04 0 0.94 0.04 0 
0.96 0.04 0 0.98 0.04 0 1 0.04 0 
0 0.06 0 0.02 0.06 0 0.04 0.06 0 
0.06 0.06 0 0.08 0.06 0 0.1 0.06 0 
0.12 0.06 0 0.14 0.06 0 0.16 0.06 0 
0.18 0.06 0 0.2 0.06 0 0.22 0.06 0 
0.24 0.06 0 0.26 0.06 0 0.28 0.06 0 
0.3 0.06 0 0.32 0.06 0 0.34 0.06 0 
0.36 0.06 0 0.38 0.06 0 0.4 0.06 0 
0.42 0.06 0 0.44 0.06 0 0.46 0.06 0 
0.48 0.06 0 0.5 0.06 0 0.52 0.06 0 
0.54 0.06 0 0.56 0.06 0 0.58 0.06 0 
0.6 0.06 0 0.62 0.06 0 0.64 0.06 0 
0.66 0.06 0 0.68 0.06 0 0.7 0.06 0 
0.72 0.06 0 0.74 0.06 0 0.76 0.06 0 
0.78 0.06 0 0.8 0.06 0 0.82 0.06 0 
0.84 0.06 0 0.86 0.06 0 0.88 0.06 0 
0.9 0.06 0 0.92 0.06 0 0.94 0.06 0 
0.96 0.06 0 0.98 0.06 0 1 0.06 0 
0 0.08 0 0.02 0.08 0 0.04 0.08 0 
0.06 0.08 0 0.08 0.08 0 0.1 0.08 0 
0.12 0.08 0 0.14 0.08 0 0.16 0.08 0 
0.18 0.08 0 0.2 0.08 0 0.22 0.08 0 
0.24 0.08 0 0.26 0.08 0 0.28 0.08 0 
0.3 0.08 0 0.32 0.08 0 0.34 0.08 0 
0.36 0.08 0 0.38 0.08 0 0.4 0.08 0 
0.42 0.08 0 0.44 0.08 0 0.46 0.08 0 
0.48 0.08 0 0.5 0.08 0 0.52 0.08 0 
0.54 0.08 0 0.56 0.08 0 0.58 0.08 0 
0.6 0.08 0 0.62 0.08 0 0.64 0.08 0 
0.66 0.08 0 0.68 0.08 0 0.7 0.08 0 
0.72 0.08 0 0.74 0.08 0 0.76 0.08 0 
0.78 0.08 0 0.8 0.08 0 0.82 0.08 0 
0.84 0.08 0 0.86 0.08 0 0.88 0.08 0 
0.9 0.08 0 0.92 0.08 0 0.94 0.08 0 
0.96 0.08 0 0.98 0.08 0 1 0.08 0 
0 0.1 0 0.02 0.1 0 0.04 0.1 0 
0.06 0.1 0 0.08 0.1 0 0.1 0.1 0 
0.12 0.1 0 0.14 0.1 0 0.16 0.1 0 
0.18 0.1 0 0.2 0.1 0 0.22 0.1 0 
0.24 0.1 0 0.26 0.1 0 0.28 0.1 0 
0.3 0.1 0 0.32 0.1 0 0.34 0.1 0 
0.36 0.1 0 0.38 0.1 0 0.4 0.1 0 
0.42 0.1 0 0.44 0.1 0 0.46 0.1 0 
0.48 0.1 0 0.5 0.1 0 0.52 0.1 0 
0.54 0.1 0 0.56 0.1 0 0.58 0.1 0 
0.6 0.1 0 0.62 0.1 0 0.64 0.1 0 
0.66 0.1 0 0.68 0.1 0 0.7 0.1 0 
0.72 0.1 0 0.74 0.1 0 0.76 0.1 0 
0.78 0.1 0 0.8 0.1 0 0.82 0.1 0 
0.84 0.1 0 0.86 0.1 0 0.88 0.1 0 
0.9 0.1 0 0.92 0.1 0 0.94 0.1 0 
0.96 0.1 0 0.98 0.1 0 1 0.1 0 
0 0.12 0 0.02 0.12 0 0.04 0.12 0 
0.06 0.12 0 0.08 0.12 0 0.1 0.12 0 
0.12 0.12 0 0.14 0.12 0 0.16 0.12 0 
0.18 0.12 0 0.2 0.12 0 0.22 0.12 0 
0.24 0.12 0 0.26 0.12 0 0.28 0.12 0 
0.3 0.12 0 0.32 0.12 0 0.34 0.12 0 
0.36 0.12 0 0.38 0.12 0 0.4 0.12 0 
0.42 0.12 0 0.44 0.12 0 0.46 0.12 0 
0.48 0.12 0 0.5 0.12 0 0.52 0.12 0 
0.54 0.12 0 0.56 0.12 0 0.58 0.12 0 
0.6 0.12 0 0.62 0.12 0 0.64 0.12 0 
0.66 0.12 0 0.68 0.12 0 0.7 0.12 0 
0.72 0.12 0 0.74 0.12 0 0.76 0.12 0 
0.78 0.12 0 0.8 0.12 0 0.82 0.12 0 
0.84 0.12 0 0.86 0.12 0 0.88 0.12 0 
0.9 0.12 0 0.92 0.12 0 0.94 0.12 0 
0.96 0.12 0 0.98 0.12 0 1 0.12 0 
0 0.14 0 0.02 0.14 0 0.04 0.14 0 
0.06 0.14 0 0.08 0.14 0 0.1 0.14 0 
0.12 0.14 0 0.14 0.14 0 0.16 0.14 0 
0.18 0.14 0 0.2 0.14 0 0.22 0.14 0 
0.24 0.14 0 0.26 0.14 0 0.28 0.14 0 
0.3 0.14 0 0.32 0.14 0 0.34 0.14 0 
0.36 0.14 0 0.38 0.14 0 0.4 0.14 0 
0.42 0.14 0 0.44 0.14 0 0.46 0.14 0 
0.48 0.14 0 0.5 0.14 0 0.52 0.14 0 
0.54 0.14 0 0.56 0.14 0 0.58 0.14 0 
0.6 0.14 0 0.62 0.14 0 0.64 0.14 0 
0.66 0.14 0 0.68 0.14 0 0.7 0.14 0 
0.72 0.14 0 0.74 0.14 0 0.76 0.14 0 
0.78 0.14 0 0.8 0.14 0 0.82 0.14 0 
0.84 0.14 0 0.86 0.14 0 0.88 0.14 0 
0.9 0.14 0 0.92 0.14 0 0.94 0.14 0 
0.96 0.14 0 0.98 0.14 0 1 0.14 0 
0 0.16 0 0.02 0.16 0 0.04 0.16 0 
0.06 0.16 0 0.08 0.16 0 0.1 0.16 0 
0.12 0.16 0 0.14 0.16 0 0.16 0.16 0 
0.18 0.16 0 0.2 0.16 0 0.22 0.16 0 
0.24 0.16 0 0.26 0.16 0 0.28 0.16 0 
0.3 0.16 0 0.32 0.16 0 0.34 0.16 0 
0.36 0.16 0 0.38 0.16 0 0.4 0.16 0 
0.42 0.16 0 0.44 0.16 0 0.46 0.16 0 
0.48 0.16 0 0.5 0.16 0 0.52 0.16 0 
0.54 0.16 0 0.56 0.16 0 0.58 0.16 0 
0.6 0.16 0 0.62 0.16 0 0.64 0.16 0 
0.66 0.16 0 0.68 0.16 0 0.7 0.16 0 
0.72 0.16 0 0.74 0.16 0 0.76 0.16 0 
0.78 0.16 0 0.8 0.16 0 0.82 0.16 0 
0.84 0.16 0 0.86 0.16 0 0.88 0.16 0 
0.9 0.16 0 0.92 0.16 0 0.94 0.16 0 
0.96 0.16 0 0.98 0.16 0 1 0.16 0 
0 0.18 0 0.02 0.18 0 0.04 0.18 0 
0.06 0.18 0 0.08 0.18 0 0.1 0.18 0 
0.12 0.18 0 0.14 0.18 0 0.16 0.18 0 
0.18 0.18 0 0.2 0.18 0 0.22 0.18 0 
0.24 0.18 0 0.26 0.18 0 0.28 0.18 0 
0.3 0.18 0 0.32 0.18 0 0.34 0.18 0 
0.36 0.18 0 0.38 0.18 0 0.4 0.18 0 
0.42 0.18 0 0.44 0.18 0 0.46 0.18 0 
0.48 0.18 0 0.5 0.18 0 0.52 0.18 0 
0.54 0.18 0 0.56 0.18 0 0.58 0.18 0 
0.6 0.18 0 0.62 0.18 0 0.64 0.18 0 
0.66 0.18 0 0.68 0.18 0 0.7 0.18 0 
0.72 0.18 0 0.74 0.18 0 0.76 0.18 0 
0.78 0.18 0 0.8 0.18 0 0.82 0.18 0 
0.84 0.18 0 0.86 0.18 0 0.88 0.18 0 
0.9 0.18 0 0.92 0.18 0 0.94 0.18 0 
0.96 0.18 0 0.98 0.18 0 1 0.18 0 
0 0.2 0 0.02 0.2 0 0.04 0.2 0 
0.06 0.2 0 0.08 0.2 0 0.1 0.2 0 
0.12 0.2 0 0.14 0.2 0 0.16 0.2 0 
0.18 0.2 0 0.2 0.2 0 0.22 0.2 0 
0.24 0.2 0 0.26 0.2 0 0.28 0.2 0 
0.3 0.2 0 0.32 0.2 0 0.34 0.2 0 
0.36 0.2 0 0.38 0.2 0 0.4 0.2 0 
0.42 0.2 0 0.44 0.2 0 0.46 0.2 0 
0.48 0.2 0 0.5 0.2 0 0.52 0.2 0 
0.54 0.2 0 0.56 0.2 0 0.58 0.2 0 
0.6 0.2 0 0.62 0.2 0 0.64 0.2 0 
0.66 0.2 0 0.68 0.2 0 0.7 0.2 0 
0.72 0.2 0 0.74 0.2 0 0.76 0.2 0 
0.78 0.2 0 0.8 0.2 0 0.82 0.2 0 
0.84 0.2 0 0.86 0.2 0 0.88 0.2 0 
0.9 0.2 0 0.92 0.2 0 0.94 0.2 0 
0.96 0.2 0 0.98 0.2 0 1 0.2 0 
0 0.22 0 0.02 0.22 0 0.04 0.22 0 
0.06 0.22 0 0.08 0.22 0 0.1 0.22 0 
0.12 0.22 0 0.14 0.22 0 0.16 0.22 0 
0.18 0.22 0 0.2 0.22 0 0.22 0.22 0 
0.24 0.22 0 0.26 0.22 0 0.28 0.22 0 
0.3 0.22 0 0.32 0.22 0 0.34 0.22 0 
0.36 0.22 0 0.38 0.22 0 0.4 0.22 0 
0.42 0.22 0 0.44 0.22 0 0.46 0.22 0 
0.48 0.22 0 0.5 0.22 0 0.52 0.22 0 
0.54 0.22 0 0.56 0.22 0 0.58 0.22 0 
0.6 0.22 0 0.62 0.22 0 0.64 0.22 0 
0.66 0.22 0 0.68 0.22 0 0.7 0.22 0 
0.72 0.22 0 0.74 0.22 0 0.76 0.22 0 
0.78 0.22 0 0.8 0.22 0 0.82 0.22 0 
0.84 0.22 0 0.86 0.22 0 0.88 0.22 0 
0.9 0.22 0 0.92 0.22 0 0.94 0.22 0 
0.96 0.22 0 0.98 0.22 0 1 0.22 0 
0 0.24 0 0.02 0.24 0 0.04 0.24 0 
0.06 0.24 0 0.08 0.24 0 0.1 0.24 0 
0.12 0.24 0 0.14 0.24 0 0.16 0.24 0 
0.18 0.24 0 0.2 0.24 0 0.22 0.24 0 
0.24 0.24 0 0.26 0.24 0 0.28 0.24 0 
0.3 0.24 0 0.32 0.24 0 0.34 0.24 0 
0.36 0.24 0 0.38 0.24 0 0.4 0.24 0 
0.42 0.24 0 0.44 0.24 0 0.46 0.24 0 
0.48 0.24 0 0.5 0.24 0 0.52 0.24 0 
0.54 0.24 0 0.56 0.24 0 0.58 0.24 0 
0.6 0.24 0 0.62 0.24 0 0.64 0.24 0 
0.66 0.24 0 0.68 0.24 0 0.7 0.24 0 
0.72 0.24 0 0.74 0.24 0 0.76 0.24 0 
0.78 0.24 0 0.8 0.24 0 0.82 0.24 0 
0.84 0.24 0 0.86 0.24 0 0.88 0.24 0 
0.9 0.24 0 0.92 0.24 0 0.94 0.24 0 
0.96 0.24 0 0.98 0.24 0 1 0.24 0 
0 0.26 0 0.02 0.26 0 0.04 0.26 0 
0.06 0.26 0 0.08 0.26 0 0.1 0.26 0 
0.12 0.26 0 0.14 0.26 0 0.16 0.26 0 
0.18 0.26 0 0.2 0.26 0 0.22 0.26 0 
0.24 0.26 0 0.26 0.26 0 0.28 0.26 0 
0.3 0.26 0 0.32 0.26 0 0.34 0.26 0 
0.36 0.26 0 0.38 0.26 0 0.4 0.26 0 
0.42 0.26 0 0.44 0.26 0 0.46 0.26 0 
0.48 0.26 0 0.5 0.26 0 0.52 0.26 0 
0.54 0.26 0 0.56 0.26 0 0.58 0.26 0 
0.6 0.26 0 0.62 0.26 0 0.64 0.26 0 
0.66 0.26 0 0.68 0.26 0 0.7 0.26 0 
0.72 0.26 0 0.74 0.26 0 0.76 0.26 0 
0.78 0.26 0 0.8 0.26 0 0.82 0.26 0 
0.84 0.26 0 0.86 0.26 0 0.88 0.26 0 
0.9 0.26 0 0.92 0.26 0 0.94 0.26 0 
0.96 0.26 0 0.98 0.26 0 1 0.26 0 
0 0.28 0 0.02 0.28 0 0.04 0.28 0 
0.06 0.28 0 0.08 0.28 0 0.1 0.28 0 
0.12 0.28 0 0.14 0.28 0 0.16 0.28 0 
0.18 0.28 0 0.2 0.28 0 0.22 0.28 0 
0.24 0.28 0 0.26 0.28 0 0.28 0.28 0 
0.3 0.28 0 0.32 0.28 0 0.34 0.28 0 
0.36 0.28 0 0.38 0.28 0 0.4 0.28 0 
0.42 0.28 0 0.44 0.28 0 0.46 0.28 0 
0.48 0.28 0 0.5 0.28 0 0.52 0.28 0 
0.54 0.28 0 0.56 0.28 0 0.58 0.28 0 
0.6 0.28 0 0.62 0.28 0 0.64 0.28 0 
0.66 0.28 0 0.68 0.28 0 0.7 0.28 0 
0.72 0.28 0 0.74 0.28 0 0.76 0.28 0 
0.78 0.28 0 0.8 0.28 0 0.82 0.28 0 
0.84 0.28 0 0.86 0.28 0 0.88 0.28 0 
0.9 0.28 0 0.92 0.28 0 0.94 0.28 0 
0.96 0.28 0 0.98 0.28 0 1 0.28 0 
0 0.3 0 0.02 0.3 0 0.04 0.3 0 
0.06 0.3 0 0.08 0.3 0 0.1 0.3 0 
0.12 0.3 0 0.14 0.3 0 0.16 0.3 0 
0.18 0.3 0 0.2 0.3 0 0.22 0.3 0 
0.24 0.3 0 0.26 0.3 0 0.28 0.3 0 
0.3 0.3 0 0.32 0.3 0 0.34 0.3 0 
0.36 0.3 0 0.38 0.3 0 0.4 0.3 0 
0.42 0.3 0 0.44 0.3 0 0.46 0.3 0 
0.48 0.3 0 0.5 0.3 0 0.52 0.3 0 
0.54 0.3 0 0.56 0.3 0 0.58 0.3 0 
0.6 0.3 0 0.62 0.3 0 0.64 0.3 0 
0.66 0.3 0 0.68 0.3 0 0.7 0.3 0 
0.72 0.3 0 0.74 0.3 0 0.76 0.3 0 
0.78 0.3 0 0.8 0.3 0 0.82 0.3 0 
0.84 0.3 0 0.86 0.3 0 0.88 0.3 0 
0.9 0.3 0 0.92 0.3 0 0.94 0.3 0 
0.96 0.3 0 0.98 0.3 0 1 0.3 0 
0 0.32 0 0.02 0.32 0 0.04 0.32 0 
0.06 0.32 0 0.08 0.32 0 0.1 0.32 0 
0.12 0.32 0 0.14 0.32 0 0.16 0.32 0 
0.18 0.32 0 0.2 0.32 0 0.22 0.32 0 
0.24 0.32 0 0.26 0.32 0 0.28 0.32 0 
0.3 0.32 0 0.32 0.32 0 0.34 0.32 0 
0.36 0.32 0 0.38 0.32 0 0.4 0.32 0 
0.42 0.32 0 0.44 0.32 0 0.46 0.32 0 
0.48 0.32 0 0.5 0.32 0 0.52 0.32 0 
0.54 0.32 0 0.56 0.32 0 0.58 0.32 0 
[...]
CELL_DATA 2500
FIELD FieldData 1
pressure 1 2500 double
-0.011077640097 -0.011152258188 -0.011273835401 -0.011397712811 -0.011494232552 -0.011545883048 -0.011543446134 -0.011482959817 -0.011363617943 
-0.011186397488 -0.010953204102 -0.010666374574 -0.010328416571 -0.0099418976116 -0.009509420204 -0.0090336402373 -0.0085173016864 -0.0079632724697 
-0.007374574285 -0.0067544040674 -0.0061061471877 -0.0054333834813 -0.0047398873822 -0.004029623341 -0.003306737821 -0.0025755500437 -0.0018405698915 
-0.0011064677776 -0.00037797407176 0.00034008784588 0.0010428266976 0.0017253125652 0.0023826074531 0.0030097953976 0.0036020107238 0.0041544635649 
0.0046624630853 0.0051214416174 0.0055269877594 0.0058749039183 0.0061613141517 0.0063828615673 0.0065370512435 0.0066228158766 0.0066414108101 
0.0065977890758 0.0065026666388 0.006375514243 0.0062484222744 0.0061689865262 -0.011002218475 -0.011077234367 -0.011173981971 -0.011266665938 
-0.0113349771 -0.011364931579 -0.011347907428 -0.01127925167 -0.011157029507 -0.010981064981 -0.010752267299 -0.010472190589 -0.010142767701 
-0.009766164803 -0.0093447138977 -0.0088808912689 -0.0083773197719 -0.0078367809152 -0.0072622286467 -0.0066568007373 -0.0060238260761 -0.0053668274811 
-0.0046895201889 -0.0039958063629 -0.0032897659059 -0.0025756433334 -0.0018578863745 -0.0011410960099 -0.00042991608134 0.00027091671957 0.00095660188917 
0.0016223056586 0.002263193128 0.0028744615721 0.0034513747266 0.0039892986105 0.0044837409252 0.0049303986005 0.0053252219204 0.005664508999 
0.0059450511306 0.0061643573242 0.0063209944728 0.0064150869161 0.006449023019 0.0064284089933 0.0063632671268 0.0062693274134 0.0061688429689 
0.006089412886 -0.010879654181 -0.010980749831 -0.011078432545 -0.011160374831 -0.011214625873 -0.011231661499 -0.011204829361 -0.011130028598 
-0.011005155637 -0.010829560248 -0.010603602096 -0.010328325497 -0.010005239647 -0.0096361814557 -0.0092232374445 -0.008768704527 -0.008275074167 
-0.007745029019 -0.00718144493 -0.0065873940484 -0.0059661466967 -0.0053211708309 -0.0046561285546 -0.0039748694408 -0.0032814203932 -0.0025799714038 
-0.0018749243165 -0.0011708179158 -0.00047224006792 0.00021613048919 0.00088955396088 0.0015432612895 0.0021724883323 0.00277251264 0.0033386933463 
0.0038665154419 0.0043516410257 0.0047899721103 0.0051777322571 0.0055115775816 0.0057887511105 0.006007297264 0.0061663539186 0.0062665354706 
0.0063104065664 0.0063030124698 0.0062523576163 0.0061695704328 0.0060682067081 0.0059617101748 -0.010753378968 -0.010887928521 -0.010998971552 
-0.011082434513 -0.011132499581 -0.011143599671 -0.01111133346 -0.01103268908 -0.010905937333 -0.010730406153 -0.010506244141 -0.010234219401 
-0.0099155670469 -0.0095518830196 -0.0091450554615 -0.0086972236409 -0.0082107553662 -0.0076882357113 -0.0071324618636 -0.0065464405643 -0.0059333858809 
-0.005296715928 -0.0046400476982 -0.0039671894597 -0.0032821303019 -0.0025890263945 -0.0018922449909 -0.0011962778721 -0.00050568553609 0.00017488212129 
0.00084071533484 0.0014870771834 0.0021092397017 0.0027025237853 0.0032623436621 0.0037842573806 0.0042640257807 0.0046976837781 0.0050816293755 
0.0054127373231 0.0056885051845 0.0059072386953 0.0060682790715 0.0061722646427 0.0062213985696 0.0062196566731 0.0061728048772 0.0060879941648 
0.0059725630129 0.0058315451398 -0.010652531641 -0.010819037798 -0.010947783267 -0.011039083701 -0.011091065492 -0.011101129959 -0.011066851077 
-0.010986388206 -0.010858610093 -0.01068307169 -0.010459930873 -0.010189852611 -0.0098739230658 -0.0095135816666 -0.0091105718023 -0.0086669073069 
-0.0081848508938 -0.0076669008181 -0.007115782614 -0.0065344434945 -0.0059260476524 -0.0052939712133 -0.00464179597 -0.0039733012929 -0.0032924537874 
-0.0026033944506 -0.0019104699037 -0.0012181486628 -0.00053098961757 0.00014635779715 0.00080918296905 0.0014527476394 0.0020723237141 0.0026632357622 
0.0032209089761 0.0037409238952 0.0042190798774 0.0046514700883 0.0050345714601 0.0053653532803 0.0056414071678 0.005861098208 0.0060237305231 
0.006129708625 0.0061806561141 0.006179423196 0.006129873069 0.0060362887042 0.0059022030061 0.0057284681424 -0.010594771853 -0.010788553696 
-0.010935154112 -0.01103685862 -0.01109406214 -0.011106156004 -0.011072220889 -0.010991437271 -0.010863294327 -0.010687673286 -0.010464861377 
-0.010195532553 -0.0098807162283 -0.009521765317 -0.0091203286081 -0.0086783290513 -0.0081979476884 -0.0076816121219 -0.0071319881945 -0.0065519735793 
-0.0059446921465 -0.0053134881775 -0.0046619196899 -0.0039937502992 -0.0033129392196 -0.0026236292093 -0.0019301654828 -0.0012370217608 -0.00054877953467 
0.00012988444814 0.00079422776482 0.0014394766907 0.0020608655017 0.0026536810873 0.0032133135326 0.0037353136727 0.0042154590048 0.0046498296605 
0.0050348961789 0.005367620205 0.0056455674163 0.0058670281633 0.0060311345522 0.0061379519756 0.0061885077448 0.0061846999934 0.0061290095883 
0.0060239245735 0.0058709962637 0.0056695018941 -0.010590135275 -0.010806131883 -0.010968979646 -0.011081579502 -0.011145474824 -0.011161270725 
-0.011129090991 -0.011048906362 -0.010920746714 -0.01074482625 -0.010521609807 -0.010251842322 -0.0099365569912 -0.0095770722482 -0.0091749838664 
-0.0087321557596 -0.00825071126 -0.0077330255681 -0.0071817193608 -0.0065996532062 -0.0059899222587 -0.0053558506598 -0.0047009850939 -0.0040290870195 
-0.003344123192 -0.0026502542351 -0.0019518476356 -0.0012534124189 -0.00055957644125 0.00012492865694 0.00079529750569 0.0014466862471 0.00207425318 
0.0026732051646 0.0032388503015 0.0037666575716 0.0042523242509 0.0046918519048 0.0050816313915 0.0054185362738 0.0057000218919 0.0059242235837 
0.0060900416259 0.0061971921375 0.0062461928599 0.0062382422 0.0061749432658 0.0060578287433 0.0058876664076 0.0056635766577 -0.010643999105 
-0.010877962503 -0.01105503828 -0.011178062238 -0.011249048247 -0.011269272116 -0.01123952517 -0.011160341657 -0.011032177524 -0.010855539992 
-0.010631075741 -0.010359627325 -0.010042266642 -0.0096803128386 -0.009275340242 -0.0088291803626 -0.0083439207104 -0.0078219020687 -0.0072657151191 
-0.0066781967403 -0.0060624259437 -0.0054217191965 -0.0047596247786 -0.0040799157782 -0.0033865813468 -0.0026838158867 -0.0019760350741 -0.0012678131301 
-0.00056384822418 0.00013104538598 0.00081196793733 0.0014739702375 0.0021120955489 0.002721427636 0.0032971453703 0.0038345843113 0.0043293056282 
0.0047771724936 0.0051744334951 0.0055178114229 0.0058045937079 0.0060327174898 0.006200837621 0.0063083600218 0.0063554165535 0.0063427529359 
0.0062715014879 0.0061428198501 0.0059573988159 0.0057148765218 -0.010759105743 -0.011007982415 -0.011197519636 -0.01133020071 -0.011408139044 
-0.011432936804 -0.011405783608 -0.011327592466 -0.011199134286 -0.011021153893 -0.010794462071 -0.010520003986 -0.010198907169 -0.009832513191 
-0.0094223972319 -0.0089703792065 -0.0084785293357 -0.0079491702829 -0.0073848772127 -0.0067884765469 -0.0061630437373 -0.0055119000665 -0.0048386082773 
-0.0041469667211 -0.0034410016444 -0.0027249571895 -0.0020033228654 -0.0012807670716 -0.00056208260837 0.00014780563879 0.00084387166604 0.0015210251474 
0.0021741544854 0.0027981765002 0.0033880930879 0.0039390550885 0.0044464334236 0.0049058971981 0.005313497774 0.0056657566406 0.0059597530263 
0.0061932044896 0.0063645302115 0.0064728827459 0.0065181304427 0.0065007711959 0.0064217606552 0.0062822464899 0.0060832150105 0.005825074396 
-0.010936884585 -0.011198814288 -0.011399567362 -0.011541201816 -0.011625755899 -0.011654961327 -0.011630232015 -0.011552726841 -0.011423441961 
-0.011243307085 -0.011013272286 -0.010734379574 -0.010407818007 -0.010034963764 -0.0096174077726 -0.0091569737855 -0.0086557296254 -0.0081159937544 
-0.0075403387702 -0.0069315928557 -0.0062928397404 -0.0056274173668 -0.0049389151971 -0.0042311699076 -0.0035082590851 -0.0027744924331 -0.0020344566776 
-0.001292942348 -0.00055486141299 0.00017472236672 0.00089062448131 0.0015875769889 0.0022602726619 0.0029034164202 0.0035117843923 0.004080290772 
0.0046040623733 0.0050785203376 0.0054994677197 0.0058631805313 0.0061664981572 0.0064069068267 0.0065826071673 0.0066925541509 0.0067364556813 
0.0067147156426 0.0066283094484 0.0064785854394 0.0062669929628 0.0059947449266 -0.011178288597 -0.011452442501 -0.011663742296 -0.01181385488 
-0.011904685441 -0.011937998963 -0.011915333833 -0.011838009858 -0.011707185297 -0.011523933367 -0.011289320435 -0.011004476188 -0.010670651566 
-0.010289263645 -0.0098619286711 -0.0093904853252 -0.0088770105364 -0.0083238299192 -0.007733524496 -0.0071089348675 -0.0064531635425 -0.0057695757541 
-0.0050617987895 -0.004333719631 -0.0035894805205 -0.0028334719013 -0.0020703975657 -0.0013051971607 -0.0005429262026 0.00021118440982 0.00095175905937 
0.0016733149549 0.0023703072711 0.0030371824762 0.0036684402824 0.0042587044283 0.0048028021707 0.0052958518551 0.0057333571598 0.006111305467 
0.0064262662604 0.0066754834872 0.0068569536492 0.0069694793172 0.0070126863038 0.0069869923688 0.0068935163397 0.0067339186293 0.0065101662741 
0.006224216438 -0.011484302389 -0.011770674732 -0.011992382152 -0.012150779031 -0.012247643673 -0.012284741803 -0.012263689435 -0.012185921112 
-0.012052719163 -0.01186527304 -0.011624748583 -0.011332355124 -0.0109894041 -0.010597356735 -0.010157860791 -0.0096727777449 -0.0091442022944 
-0.0085744761126 -0.0079661975155 -0.0073222282804 -0.0066456984308 -0.005940009412 -0.0052088357621 -0.0044561251133 -0.0036860961415 -0.0029032338835 
-0.0021123747133 -0.0013186335448 -0.00052723308598 0.00025640072233 0.0010266684114 0.0017778343485 0.0025040726926 0.003199522751 0.003858354363 
0.0044748436766 0.0050434592977 0.0055589582055 0.0060164899708 0.0064117065929 0.0067408736601 0.0070009766131 0.0071898138288 0.0073060663717 
0.0073493328849 0.0073201173868 0.0072197575446 0.0070502807218 0.0068141740557 0.0065140529149 -0.011856232393 -0.012155442785 -0.012387864417 
-0.012554627759 -0.012657421489 -0.012698017243 -0.012678097308 -0.012599193617 -0.012462695507 -0.012269895043 -0.012022048473 -0.011720440211 
-0.011366441481 -0.010961559919 -0.010507479176 -0.010006089228 -0.0094595089711 -0.0088701028567 -0.008240493244 -0.0075735697617 -0.0068724965898 
-0.0061407181726 -0.0053819635326 -0.0046002490624 -0.0037998794195 -0.0029854459277 -0.0021619284255 -0.0013346421461 -0.00050899923559 0.00030935229208 
0.0011145565587 0.0019005864369 0.0026612900115 0.0033904480097 0.0040818431382 0.0047293419752 0.0053269896172 0.0058691165925 0.0063504565372 
0.0067662717039 0.0071124815281 0.0073857873127 0.0075837838546 0.0077050468339 0.0077491832839 0.0077168314274 0.0076095952318 0.0074298975274 
0.0071807331089 0.0068653007185 -0.012295858277 -0.012608990044 -0.012852790691 -0.013028248364 -0.013137011172 -0.01318088249 -0.013161622105 
-0.013080862413 -0.012940099074 -0.012740725007 -0.012484085578 -0.012171540185 -0.01180452116 -0.011384585197 -0.010913455537 -0.01039305507 
-0.009825531664 -0.0092132774001 -0.0085589433985 -0.0078654516338 -0.0071360047448 -0.0063740944476 -0.0055835087947 -0.0047683382015 -0.0039329798805 
-0.0030821400651 -0.0022209480221 -0.001354942768 -0.0004897459475 0.00036874687945 0.0012143915622 0.00204083043 0.0028415387371 0.0036098840397 
0.0043391998962 0.0050228749704 0.0056544580917 0.0062277789894 0.0067370831519 0.0071771774786 0.0075435810999 0.0078326730859 0.0080418260751 
0.0081695125316 0.0082153686655 0.0081801999756 0.0080659113761 0.007875343248 0.0076119923149 0.0072795942689 -0.012805502031 -0.013133984118 
-0.013390113151 -0.013574802805 -0.013689711395 -0.013736710259 -0.013717661851 -0.013634316284 -0.01348828728 -0.013281076717 -0.013014124933 
-0.012688870924 -0.012306812189 -0.011869558367 -0.011378876146 -0.01083672514 -0.010245285824 -0.0096069811994 -0.0089244939668 -0.0082007807218 
-0.0074390843287 -0.0066429451944 -0.0058162117765 -0.0049630503074 -0.0040879534013 -0.00319574692 -0.0022917094983 -0.0013816256709 -0.00047134337156 
0.000432971309 0.0013248555337 0.0021975821487 0.0030442052834 0.0038576212717 0.0046306469143 0.0053561167819 0.0060270006382 0.006636541016 
0.0071784093495 0.0076468767543 0.0080369925607 0.0083447602945 0.0085672974055 0.0087029622591 0.0087514301606 0.0087136994572 0.0085920084773 
0.0083896433524 0.0081106153189 0.0077591852379 -0.013388053844 -0.01373358433 -0.014003222126 -0.014197859693 -0.014319213727 -0.014369264655 
-0.014350011606 -0.014263349707 -0.014111032099 -0.013894685926 -0.013615858789 -0.013276078567 -0.012876915075 -0.012420036573 -0.011907257813 
-0.011340578886 -0.010722215796 -0.010054624508 -0.0093405203716 -0.0085828946586 -0.0077850295359 -0.0069505123546 -0.006083249712 -0.0051874813477 
-0.0042677935885 -0.0033291317278 -0.0023769166993 -0.0014171976838 -0.00045606122557 0.00050003674894 0.0014442868175 0.0023695543449 0.0032684229822 
0.004133256316 0.0049562805501 0.0057296907843 0.0064457827264 0.007097110354 0.0076766679191 0.0081780916331 0.0085958724209 0.0089255666414 
0.0091639873072 0.0093093549694 0.0093613857497 0.0093212941294 0.0091916893378 0.0089763453362 0.0086798247318 0.0083069374316 -0.014046980583 
-0.014411485581 -0.014696010604 -0.014901467519 -0.01502967602 -0.015082769444 -0.015062923873 -0.014972214601 -0.014812563482 -0.01458574641 
-0.014293436503 -0.01393726443 -0.013518882805 -0.013040026383 -0.012502563824 -0.011908539852 -0.011260208617 -0.010560060126 -0.0098108418743 
-0.0090155776826 -0.0081775852905 -0.007300493803 -0.0063882615968 -0.0054451948642 -0.0044759665805 -0.0034856353178 -0.0024797486327 -0.0014646358989 
-0.00044662856798 0.00056751353061 0.0015706104848 0.0025550844007 0.0035129989615 0.0044361204014 0.0053160039417 0.0061441094492 0.0069119492436 
0.0076112693113 0.0082342624194 0.0087738075774 0.0092237250313 0.00957903002 0.0098361628481 0.0099931687149 0.010049799288 0.010007509533 
0.0098693269512 0.0096395743816 0.0093234303589 0.0089263129045 -0.014786332756 -0.015171953578 -0.015472928016 -0.015690218201 -0.015825788797 
-0.015881972345 -0.015861167799 -0.015765672895 -0.015597614877 -0.015358948722 -0.015051497193 -0.014677012399 -0.014237243865 -0.013734003304 
-0.013169220792 -0.012544990683 -0.011863607969 -0.011127597136 -0.010339735961 -0.009503076583 -0.0086209657128 -0.0076970653389 -0.0067353747381 
-0.0057402541237 -0.004716449818 -0.0036691204365 -0.0026039138761 -0.0015274503106 -0.00044630443789 0.00063245317909 0.0017012542257 0.0027520458598 
0.0037763237119 0.0047651899592 0.0057094420758 0.0065996976756 0.0074265599242 0.0081808259284 0.0088537369376 0.0094372638431 0.0099244144573 
0.010309541121 0.010588619724 0.010759466127 0.010821854869 0.010777508617 0.010629933858 0.010384086326 0.01004585578 0.0096213630578 
-0.015610758964 -0.01601986146 -0.016339032608 -0.016569308736 -0.016712840536 -0.016772209594 -0.016750089989 -0.016649051785 -0.016471472079 
-0.016219522469 -0.015895205747 -0.015500419261 -0.015037027624 -0.014506933021 -0.013912136601 -0.01325478865 -0.012537228206 -0.011762014392 
-0.010931952313 -0.010050116245 -0.0091198724026 -0.0081449029334 -0.0071292322411 -0.0060772561562 -0.0049937739665 -0.0038840228537 -0.0027537118233 
-0.0016097555833 -0.00045896008435 0.00069129626911 0.0018330474699 0.0029577407566 0.0040562594082 0.0051189745528 0.0061358336777 0.0070964935135 
0.007990503975 0.0088075473393 0.0095377322724 0.010171935301 0.010702173017 0.011121977679 0.011426738987 0.011613968242 0.01168344051 
0.01163717666 0.011479238921 0.011215326972 0.010852171957 0.010396730776 -0.016525532749 -0.016960734541 -0.017300049527 -0.017544607517 
-0.017696787424 -0.017759475163 -0.017735680223 -0.017628304006 -0.017440026972 -0.017173283133 -0.016830292807 -0.016413128272 -0.015923792114 
-0.015364294174 -0.01473671904 -0.014043281078 -0.013286367592 -0.012468572667 -0.01159272505 -0.010661913282 -0.009679510843 -0.0086492033817 
-0.0075750194623 -0.0064613656259 -0.0053130659217 -0.0041354053789 -0.0029340994564 -0.0017163511382 -0.00048917257599 0.00073976551581 0.0019621021461 
0.0031687700053 0.0043500030171 0.0054953769668 0.0065938936316 0.0076341191261 0.0086043862525 0.0094930677287 0.010288921431 0.010981499668 
0.011561602163 0.012021738139 0.012356549594 0.012563139174 0.01264124584 0.012593221376 0.012423778855 0.012139504841 0.011748143204 
0.011257665145 -0.017536594579 -0.018000808051 -0.018362440411 -0.018622731128 -0.01878433285 -0.018850499069 -0.018824645613 -0.018710075779 
-0.018509838054 -0.018226684643 -0.017863099383 -0.017421366157 -0.016903654036 -0.016312102136 -0.015648894269 -0.014916319532 -0.014116819327 
-0.013253023754 -0.012327781277 -0.011344185511 -0.010305602445 -0.0092157006809 -0.0080784865739 -0.0068983454984 -0.0056800896483 -0.0044290115581 
-0.0031507615542 -0.0018528078824 -0.00054232865238 0.00077274431796 0.0020836740515 0.0033808793284 0.0046539200305 0.0058915196007 0.0070816384779 
0.0082116132057 0.0092683753294 0.010238760987 0.011109915075 0.011869782146 0.01250765986 0.013014771616 0.01338479672 0.013614284582 
0.013702879308 0.01365329546 0.01347101226 0.013163684148 0.012740289477 0.012210048115 -0.018650611125 -0.019147102104 -0.019533489783 
-0.019811137226 -0.019983021939 -0.020052839428 -0.020024496992 -0.019901785353 -0.019688199835 -0.019386879065 -0.019000626811 -0.018531983722 
-0.017983320667 -0.017356933071 -0.016655124021 -0.015880271271 -0.015034878514 -0.014121614329 -0.013143343376 -0.012103154413 -0.011004389093 
-0.0098506747575 -0.0086459636855 -0.0073945806937 -0.0061012803389 -0.0047713135164 -0.0034101823241 -0.0020255590109 -0.00062473645212 0.00078414204376 
0.0021920045505 0.0035887785444 0.0049633444788 0.0063035305075 0.0075961660293 0.0088272138371 0.0099820009273 0.011045564838 0.01200312405 
0.012840666131 0.013545625799 0.014107599146 0.014519014966 0.014775667178 0.01487701163 0.014826150546 0.014629465727 0.014295906044 
0.013835969457 0.013260431893 -0.019875054444 -0.020407518485 -0.02082141398 -0.021118239549 -0.021301356927 -0.021374993403 -0.021343651825 
-0.021211715471 -0.020983223522 -0.020661784965 -0.020250592875 -0.019752500223 -0.019170123258 -0.01850594733 -0.017762420125 -0.016942026164 
-0.016047342844 -0.015081081954 -0.014046122065 -0.012945537184 -0.011782626413 -0.0105609485 -0.0092843644088 -0.0079570906609 -0.0065837665342 
-0.0051695416378 -0.0037197206509 -0.0022419906758 -0.00074374061718 0.0007667489808 0.002280143498 0.003785932725 0.0052723409554 0.0067262816866 
0.0081333784465 0.0094780780413 0.010743884398 0.011913738566 0.012970560963 0.013897953513 0.014681031232 0.01530731773 0.015767603683 
0.016056642402 0.016173553767 0.016121834413 0.015908925059 0.015545349647 0.015043491314 0.014416086684 -0.021218304929 -0.021790965076 
-0.022235499516 -0.022553552241 -0.022748940168 -0.022826532988 -0.022791558526 -0.022649123552 -0.022403931671 -0.022060166158 -0.021621494931 
-0.021091151595 -0.020472051368 -0.019766911083 -0.018978354742 -0.018108996955 -0.017161504445 -0.016138640207 -0.015043296691 -0.013878524362 
-0.012647561265 -0.011353868171 -0.010001173055 -0.0085935278668 -0.0071353796746 -0.0056316557741 -0.0040877163808 -0.0025105204402 -0.0009078320769 
0.00071208615596 0.0023397560311 0.0039643250827 0.0055734250663 0.007153071927 0.0086876364889 0.010159921063 0.011551381151 0.012842530215 
0.014013555472 0.01504515034 0.015919532973 0.016621572934 0.017139898127 0.017467816559 0.017603879654 0.017551947595 0.01732069051 
0.016922550522 0.016372263295 0.015685061045 -0.022689783848 -0.02330751588 -0.023786279893 -0.024127872579 -0.024336653165 -0.024418272882 
-0.024378848053 -0.024224374006 -0.023960369932 -0.023591722756 -0.023122680921 -0.02255694254 -0.021897787398 -0.02114821479 -0.020311064353 
-0.019389110412 -0.018385129925 -0.017301949472 -0.016142478801 -0.014909738455 -0.013606888068 -0.012237260775 -0.01080440815 -0.0093121593076 