# vtk DataFile Version 4.1
vtk output
ASCII
DATASET STRUCTURED_GRID
DIMENSIONS 51 51 1
POINTS 2601 float
0 0 0 0.02 0 0 0.04 0 0 
0.06 0 0 0.08 0 0 0.1 0 0 
0.12 0 0 0.14 0 0 0.16 0 0 
0.18 0 0 0.2 0 0 0.22 0 0 
0.24 0 0 0.26 0 0 0.28 0 0 
0.3 0 0 0.32 0 0 0.34 0 0 
0.36 0 0 0.38 0 0 0.4 0 0 
0.42 0 0 0.44 0 0 0.46 0 0 
0.48 0 0 0.5 0 0 0.52 0 0 
0.54 0 0 0.56 0 0 0.58 0 0 
0.6 0 0 0.62 0 0 0.64 0 0 
0.66 0 0 0.68 0 0 0.7 0 0 
0.72 0 0 0.74 0 0 0.76 0 0 
0.78 0 0 0.8 0 0 0.82 0 0 
0.84 0 0 0.86 0 0 0.88 0 0 
0.9 0 0 0.92 0 0 0.94 0 0 
0.96 0 0 0.98 0 0 1 0 0 
0 0.02 0 0.02 0.02 0 0.04 0.02 0 
0.06 0.02 0 0.08 0.02 0 0.1 0.02 0 
0.12 0.02 0 0.14 0.02 0 0.16 0.02 0 
0.18 0.02 0 0.2 0.02 0 0.22 0.02 0 
0.24 0.02 0 0.26 0.02 0 0.28 0.02 0 
0.3 0.02 0 0.32 0.02 0 0.34 0.02 0 
0.36 0.02 0 0.38 0.02 0 0.4 0.02 0 
0.42 0.02 0 0.44 0.02 0 0.46 0.02 0 
0.48 0.02 0 0.5 0.02 0 0.52 0.02 0 
0.54 0.02 0 0.56 0.02 0 0.58 0.02 0 
0.6 0.02 0 0.62 0.02 0 0.64 0.02 0 
0.66 0.02 0 0.68 0.02 0 0.7 0.02 0 
0.72 0.02 0 0.74 0.02 0 0.76 0.02 0 
0.78 0.02 0 0.8 0.02 0 0.82 0.02 0 
0.84 0.02 0 0.86 0.02 0 0.88 0.02 0 
0.9 0.02 0 0.92 0.02 0 0.94 0.02 0 
0.96 0.02 0 0.98 0.02 0 1 0.02 0 
0 0.04 0 0.02 0.04 0 0.04 0.04 0 
0.06 0.04 0 0.08 0.04 0 0.1 0.04 0 
0.12 0.04 0 0.14 0.04 0 0.16 0.04 0 
0.18 0.04 0 0.2 0.04 0 0.22 0.04 0 
0.24 0.04 0 0.26 0.04 0 0.28 0.04 0 
0.3 0.04 0 0.32 0.04 0 0.34 0.04 0 
0.36 0.04 0 0.38 0.04 0 0.4 0.04 0 
0.42 0.04 0 0.44 0.04 0 0.46 0.04 0 
0.48 0.04 0 0.5 0.04 0 0.52 0.04 0 
0.54 0.04 0 0.56 0.04 0 0.58 0.04 0 
0.6 0.04 0 0.62 0.04 0 0.64 0.04 0 
0.66 0.04 0 0.68 0.04 0 0.7 0.04 0 
0.72 0.04 0 0.74 0.04 0 0.76 0.04 0 
0.78 0.04 0 0.8 0.04 0 0.82 0.04 0 
0.84 0.04 0 0.86 0.04 0 0.88 0.04 0 
0.9 0.04 0 0.92 0.04 0 0.94 0.04 0 
0.96 0.04 0 0.98 0.04 0 1 0.04 0 
0 0.06 0 0.02 0.06 0 0.04 0.06 0 
0.06 0.06 0 0.08 0.06 0 0.1 0.06 0 
0.12 0.06 0 0.14 0.06 0 0.16 0.06 0 
0.18 0.06 0 0.2 0.06 0 0.22 0.06 0 
0.24 0.06 0 0.26 0.06 0 0.28 0.06 0 
0.3 0.06 0 0.32 0.06 0 0.34 0.06 0 
0.36 0.06 0 0.38 0.06 0 0.4 0.06 0 
0.42 0.06 0 0.44 0.06 0 0.46 0.06 0 
0.48 0.06 0 0.5 0.06 0 0.52 0.06 0 
0.54 0.06 0 0.56 0.06 0 0.58 0.06 0 
0.6 0.06 0 0.62 0.06 0 0.64 0.06 0 
0.66 0.06 0 0.68 0.06 0 0.7 0.06 0 
0.72 0.06 0 0.74 0.06 0 0.76 0.06 0 
0.78 0.06 0 0.8 0.06 0 0.82 0.06 0 
0.84 0.06 0 0.86 0.06 0 0.88 0.06 0 
0.9 0.06 0 0.92 0.06 0 0.94 0.06 0 
0.96 0.06 0 0.98 0.06 0 1 0.06 0 
0 0.08 0 0.02 0.08 0 0.04 0.08 0 
0.06 0.08 0 0.08 0.08 0 0.1 0.08 0 
0.12 0.08 0 0.14 0.08 0 0.16 0.08 0 
0.18 0.08 0 0.2 0.08 0 0.22 0.08 0 
0.24 0.08 0 0.26 0.08 0 0.28 0.08 0 
0.3 0.08 0 0.32 0.08 0 0.34 0.08 0 
0.36 0.08 0 0.38 0.08 0 0.4 0.08 0 
0.42 0.08 0 0.44 0.08 0 0.46 0.08 0 
0.48 0.08 0 0.5 0.08 0 0.52 0.08 0 
0.54 0.08 0 0.56 0.08 0 0.58 0.08 0 
0.6 0.08 0 0.62 0.08 0 0.64 0.08 0 
0.66 0.08 0 0.68 0.08 0 0.7 0.08 0 
0.72 0.08 0 0.74 0.08 0 0.76 0.08 0 
0.78 0.08 0 0.8 0.08 0 0.82 0.08 0 
0.84 0.08 0 0.86 0.08 0 0.88 0.08 0 
0.9 0.08 0 0.92 0.08 0 0.94 0.08 0 
0.96 0.08 0 0.98 0.08 0 1 0.08 0 
0 0.1 0 0.02 0.1 0 0.04 0.1 0 
0.06 0.1 0 0.08 0.1 0 0.1 0.1 0 
0.12 0.1 0 0.14 0.1 0 0.16 0.1 0 
0.18 0.1 0 0.2 0.1 0 0.22 0.1 0 
0.24 0.1 0 0.26 0.1 0 0.28 0.1 0 
0.3 0.1 0 0.32 0.1 0 0.34 0.1 0 
0.36 0.1 0 0.38 0.1 0 0.4 0.1 0 
0.42 0.1 0 0.44 0.1 0 0.46 0.1 0 
0.48 0.1 0 0.5 0.1 0 0.52 0.1 0 
0.54 0.1 0 0.56 0.1 0 0.58 0.1 0 
0.6 0.1 0 0.62 0.1 0 0.64 0.1 0 
0.66 0.1 0 0.68 0.1 0 0.7 0.1 0 
0.72 0.1 0 0.74 0.1 0 0.76 0.1 0 
0.78 0.1 0 0.8 0.1 0 0.82 0.1 0 
0.84 0.1 0 0.86 0.1 0 0.88 0.1 0 
0.9 0.1 0 0.92 0.1 0 0.94 0.1 0 
0.96 0.1 0 0.98 0.1 0 1 0.1 0 
0 0.12 0 0.02 0.12 0 0.04 0.12 0 
0.06 0.12 0 0.08 0.12 0 0.1 0.12 0 
0.12 0.12 0 0.14 0.12 0 0.16 0.12 0 
0.18 0.12 0 0.2 0.12 0 0.22 0.12 0 
0.24 0.12 0 0.26 0.12 0 0.28 0.12 0 
0.3 0.12 0 0.32 0.12 0 0.34 0.12 0 
0.36 0.12 0 0.38 0.12 0 0.4 0.12 0 
0.42 0.12 0 0.44 0.12 0 0.46 0.12 0 
0.48 0.12 0 0.5 0.12 0 0.52 0.12 0 
0.54 0.12 0 0.56 0.12 0 0.58 0.12 0 
0.6 0.12 0 0.62 0.12 0 0.64 0.12 0 
0.66 0.12 0 0.68 0.12 0 0.7 0.12 0 
0.72 0.12 0 0.74 0.12 0 0.76 0.12 0 
0.78 0.12 0 0.8 0.12 0 0.82 0.12 0 
0.84 0.12 0 0.86 0.12 0 0.88 0.12 0 
0.9 0.12 0 0.92 0.12 0 0.94 0.12 0 
0.96 0.12 0 0.98 0.12 0 1 0.12 0 
0 0.14 0 0.02 0.14 0 0.04 0.14 0 
0.06 0.14 0 0.08 0.14 0 0.1 0.14 0 
0.12 0.14 0 0.14 0.14 0 0.16 0.14 0 
0.18 0.14 0 0.2 0.14 0 0.22 0.14 0 
0.24 0.14 0 0.26 0.14 0 0.28 0.14 0 
0.3 0.14 0 0.32 0.14 0 0.34 0.14 0 
0.36 0.14 0 0.38 0.14 0 0.4 0.14 0 
0.42 0.14 0 0.44 0.14 0 0.46 0.14 0 
0.48 0.14 0 0.5 0.14 0 0.52 0.14 0 
0.54 0.14 0 0.56 0.14 0 0.58 0.14 0 
0.6 0.14 0 0.62 0.14 0 0.64 0.14 0 
0.66 0.14 0 0.68 0.14 0 0.7 0.14 0 
0.72 0.14 0 0.74 0.14 0 0.76 0.14 0 
0.78 0.14 0 0.8 0.14 0 0.82 0.14 0 
0.84 0.14 0 0.86 0.14 0 0.88 0.14 0 
0.9 0.14 0 0.92 0.14 0 0.94 0.14 0 
0.96 0.14 0 0.98 0.14 0 1 0.14 0 
0 0.16 0 0.02 0.16 0 0.04 0.16 0 
0.06 0.16 0 0.08 0.16 0 0.1 0.16 0 
0.12 0.16 0 0.14 0.16 0 0.16 0.16 0 
0.18 0.16 0 0.2 0.16 0 0.22 0.16 0 
0.24 0.16 0 0.26 0.16 0 0.28 0.16 0 
0.3 0.16 0 0.32 0.16 0 0.34 0.16 0 
0.36 0.16 0 0.38 0.16 0 0.4 0.16 0 
0.42 0.16 0 0.44 0.16 0 0.46 0.16 0 
0.48 0.16 0 0.5 0.16 0 0.52 0.16 0 
0.54 0.16 0 0.56 0.16 0 0.58 0.16 0 
0.6 0.16 0 0.62 0.16 0 0.64 0.16 0 
0.66 0.16 0 0.68 0.16 0 0.7 0.16 0 
0.72 0.16 0 0.74 0.16 0 0.76 0.16 0 
0.78 0.16 0 0.8 0.16 0 0.82 0.16 0 
0.84 0.16 0 0.86 0.16 0 0.88 0.16 0 
0.9 0.16 0 0.92 0.16 0 0.94 0.16 0 
0.96 0.16 0 0.98 0.16 0 1 0.16 0 
0 0.18 0 0.02 0.18 0 0.04 0.18 0 
0.06 0.18 0 0.08 0.18 0 0.1 0.18 0 
0.12 0.18 0 0.14 0.18 0 0.16 0.18 0 
0.18 0.18 0 0.2 0.18 0 0.22 0.18 0 
0.24 0.18 0 0.26 0.18 0 0.28 0.18 0 
0.3 0.18 0 0.32 0.18 0 0.34 0.18 0 
0.36 0.18 0 0.38 0.18 0 0.4 0.18 0 
0.42 0.18 0 0.44 0.18 0 0.46 0.18 0 
0.48 0.18 0 0.5 0.18 0 0.52 0.18 0 
0.54 0.18 0 0.56 0.18 0 0.58 0.18 0 
0.6 0.18 0 0.62 0.18 0 0.64 0.18 0 
0.66 0.18 0 0.68 0.18 0 0.7 0.18 0 
0.72 0.18 0 0.74 0.18 0 0.76 0.18 0 
0.78 0.18 0 0.8 0.18 0 0.82 0.18 0 
0.84 0.18 0 0.86 0.18 0 0.88 0.18 0 
0.9 0.18 0 0.92 0.18 0 0.94 0.18 0 
0.96 0.18 0 0.98 0.18 0 1 0.18 0 
0 0.2 0 0.02 0.2 0 0.04 0.2 0 
0.06 0.2 0 0.08 0.2 0 0.1 0.2 0 
0.12 0.2 0 0.14 0.2 0 0.16 0.2 0 
0.18 0.2 0 0.2 0.2 0 0.22 0.2 0 
0.24 0.2 0 0.26 0.2 0 0.28 0.2 0 
0.3 0.2 0 0.32 0.2 0 0.34 0.2 0 
0.36 0.2 0 0.38 0.2 0 0.4 0.2 0 
0.42 0.2 0 0.44 0.2 0 0.46 0.2 0 
0.48 0.2 0 0.5 0.2 0 0.52 0.2 0 
0.54 0.2 0 0.56 0.2 0 0.58 0.2 0 
0.6 0.2 0 0.62 0.2 0 0.64 0.2 0 
0.66 0.2 0 0.68 0.2 0 0.7 0.2 0 
0.72 0.2 0 0.74 0.2 0 0.76 0.2 0 
0.78 0.2 0 0.8 0.2 0 0.82 0.2 0 
0.84 0.2 0 0.86 0.2 0 0.88 0.2 0 
0.9 0.2 0 0.92 0.2 0 0.94 0.2 0 
0.96 0.2 0 0.98 0.2 0 1 0.2 0 
0 0.22 0 0.02 0.22 0 0.04 0.22 0 
0.06 0.22 0 0.08 0.22 0 0.1 0.22 0 
0.12 0.22 0 0.14 0.22 0 0.16 0.22 0 
0.18 0.22 0 0.2 0.22 0 0.22 0.22 0 
0.24 0.22 0 0.26 0.22 0 0.28 0.22 0 
0.3 0.22 0 0.32 0.22 0 0.34 0.22 0 
0.36 0.22 0 0.38 0.22 0 0.4 0.22 0 
0.42 0.22 0 0.44 0.22 0 0.46 0.22 0 
0.48 0.22 0 0.5 0.22 0 0.52 0.22 0 
0.54 0.22 0 0.56 0.22 0 0.58 0.22 0 
0.6 0.22 0 0.62 0.22 0 0.64 0.22 0 
0.66 0.22 0 0.68 0.22 0 0.7 0.22 0 
0.72 0.22 0 0.74 0.22 0 0.76 0.22 0 
0.78 0.22 0 0.8 0.22 0 0.82 0.22 0 
0.84 0.22 0 0.86 0.22 0 0.88 0.22 0 
0.9 0.22 0 0.92 0.22 0 0.94 0.22 0 
0.96 0.22 0 0.98 0.22 0 1 0.22 0 
0 0.24 0 0.02 0.24 0 0.04 0.24 0 
0.06 0.24 0 0.08 0.24 0 0.1 0.24 0 
0.12 0.24 0 0.14 0.24 0 0.16 0.24 0 
0.18 0.24 0 0.2 0.24 0 0.22 0.24 0 
0.24 0.24 0 0.26 0.24 0 0.28 0.24 0 
0.3 0.24 0 0.32 0.24 0 0.34 0.24 0 
0.36 0.24 0 0.38 0.24 0 0.4 0.24 0 
0.42 0.24 0 0.44 0.24 0 0.46 0.24 0 
0.48 0.24 0 0.5 0.24 0 0.52 0.24 0 
0.54 0.24 0 0.56 0.24 0 0.58 0.24 0 
0.6 0.24 0 0.62 0.24 0 0.64 0.24 0 
0.66 0.24 0 0.68 0.24 0 0.7 0.24 0 
0.72 0.24 0 0.74 0.24 0 0.76 0.24 0 
0.78 0.24 0 0.8 0.24 0 0.82 0.24 0 
0.84 0.24 0 0.86 0.24 0 0.88 0.24 0 
0.9 0.24 0 0.92 0.24 0 0.94 0.24 0 
0.96 0.24 0 0.98 0.24 0 1 0.24 0 
0 0.26 0 0.02 0.26 0 0.04 0.26 0 
0.06 0.26 0 0.08 0.26 0 0.1 0.26 0 
0.12 0.26 0 0.14 0.26 0 0.16 0.26 0 
0.18 0.26 0 0.2 0.26 0 0.22 0.26 0 
0.24 0.26 0 0.26 0.26 0 0.28 0.26 0 
0.3 0.26 0 0.32 0.26 0 0.34 0.26 0 
0.36 0.26 0 0.38 0.26 0 0.4 0.26 0 
0.42 0.26 0 0.44 0.26 0 0.46 0.26 0 
0.48 0.26 0 0.5 0.26 0 0.52 0.26 0 
0.54 0.26 0 0.56 0.26 0 0.58 0.26 0 
0.6 0.26 0 0.62 0.26 0 0.64 0.26 0 
0.66 0.26 0 0.68 0.26 0 0.7 0.26 0 
0.72 0.26 0 0.74 0.26 0 0.76 0.26 0 
0.78 0.26 0 0.8 0.26 0 0.82 0.26 0 
0.84 0.26 0 0.86 0.26 0 0.88 0.26 0 
0.9 0.26 0 0.92 0.26 0 0.94 0.26 0 
0.96 0.26 0 0.98 0.26 0 1 0.26 0 
0 0.28 0 0.02 0.28 0 0.04 0.28 0 
0.06 0.28 0 0.08 0.28 0 0.1 0.28 0 
0.12 0.28 0 0.14 0.28 0 0.16 0.28 0 
0.18 0.28 0 0.2 0.28 0 0.22 0.28 0 
0.24 0.28 0 0.26 0.28 0 0.28 0.28 0 
0.3 0.28 0 0.32 0.28 0 0.34 0.28 0 
0.36 0.28 0 0.38 0.28 0 0.4 0.28 0 
0.42 0.28 0 0.44 0.28 0 0.46 0.28 0 
0.48 0.28 0 0.5 0.28 0 0.52 0.28 0 
0.54 0.28 0 0.56 0.28 0 0.58 0.28 0 
0.6 0.28 0 0.62 0.28 0 0.64 0.28 0 
0.66 0.28 0 0.68 0.28 0 0.7 0.28 0 
0.72 0.28 0 0.74 0.28 0 0.76 0.28 0 
0.78 0.28 0 0.8 0.28 0 0.82 0.28 0 
0.84 0.28 0 0.86 0.28 0 0.88 0.28 0 
0.9 0.28 0 0.92 0.28 0 0.94 0.28 0 
0.96 0.28 0 0.98 0.28 0 1 0.28 0 
0 0.3 0 0.02 0.3 0 0.04 0.3 0 
0.06 0.3 0 0.08 0.3 0 0.1 0.3 0 
0.12 0.3 0 0.14 0.3 0 0.16 0.3 0 
0.18 0.3 0 0.2 0.3 0 0.22 0.3 0 
0.24 0.3 0 0.26 0.3 0 0.28 0.3 0 
0.3 0.3 0 0.32 0.3 0 0.34 0.3 0 
0.36 0.3 0 0.38 0.3 0 0.4 0.3 0 
0.42 0.3 0 0.44 0.3 0 0.46 0.3 0 
0.48 0.3 0 0.5 0.3 0 0.52 0.3 0 
0.54 0.3 0 0.56 0.3 0 0.58 0.3 0 
0.6 0.3 0 0.62 0.3 0 0.64 0.3 0 
0.66 0.3 0 0.68 0.3 0 0.7 0.3 0 
0.72 0.3 0 0.74 0.3 0 0.76 0.3 0 
0.78 0.3 0 0.8 0.3 0 0.82 0.3 0 
0.84 0.3 0 0.86 0.3 0 0.88 0.3 0 
0.9 0.3 0 0.92 0.3 0 0.94 0.3 0 
0.96 0.3 0 0.98 0.3 0 1 0.3 0 
0 0.32 0 0.02 0.32 0 0.04 0.32 0 
0.06 0.32 0 0.08 0.32 0 0.1 0.32 0 
0.12 0.32 0 0.14 0.32 0 0.16 0.32 0 
0.18 0.32 0 0.2 0.32 0 0.22 0.32 0 
0.24 0.32 0 0.26 0.32 0 0.28 0.32 0 
0.3 0.32 0 0.32 0.32 0 0.34 0.32 0 
0.36 0.32 0 0.38 0.32 0 0.4 0.32 0 
0.42 0.32 0 0.44 0.32 0 0.46 0.32 0 
0.48 0.32 0 0.5 0.32 0 0.52 0.32 0 
0.54 0.32 0 0.56 0.32 0 0.58 0.32 0 
[...]
CELL_DATA 2500
FIELD FieldData 1
pressure 1 2500 double
0.0061838204172 0.0061151376015 0.0059240640625 0.0056497689645 0.0053323035333 0.0050043248975 0.0046904047796 0.00440830639 0.0041705077417 
0.0039855142656 0.0038589065539 0.0037941548288 0.0037932452621 0.0038571567462 0.0039862105335 0.0041802972342 0.0044389773241 0.0047614572651 
0.0051464584984 0.005592011685 0.006095216358 0.0066520047272 0.0072569398815 0.0079030649423 0.0085818044585 0.009282905452 0.0099940390475 
0.010701972849 0.011392766333 0.012051886853 0.012664632713 0.013216656514 0.01369455561 0.014086496528 0.014382837841 0.014576714011 
0.014664543272 0.01464642651 0.014526411718 0.014312610113 0.014017164386 0.013656085032 0.013248984476 0.012818744603 0.012391150093 
0.011994388936 0.011658289229 0.011412392714 0.01128078758 0.011268380159 0.0062499713651 0.0061833502484 0.0060214672904 0.0057938158974 
0.0055295728381 0.0052544245424 0.0049891787388 0.0047497007479 0.0045475135306 0.0043906343271 0.0042844195332 0.0042323107495 0.0042364420768 
0.0042980978767 0.0044180187297 0.0045965591344 0.0048337122013 0.0051290299279 0.0054814756259 0.0058892444967 0.0063495813155 0.0068586155008 
0.0074112258017 0.0080009410005 0.0086198828299 0.0092587666646 0.0099060098309 0.010549641027 0.011177098984 0.01177530838 0.012331091927 
0.012831654177 0.013265117877 0.013621085612 0.013891195028 0.014069633818 0.014153581157 0.014143545721 0.014043577265 0.013861338525 
0.013608035709 0.013298217169 0.012949457734 0.012581944994 0.012217964986 0.011881232859 0.011595873361 0.011384847998 0.011267322742 
0.011255962928 0.0064450426681 0.006347891418 0.0061821302842 0.005969942693 0.0057331951534 0.0054914931324 0.0052610078143 0.00505422928 
0.0048803479527 0.0047459068476 0.0046554824299 0.0046122739063 0.0046185562609 0.0046759867653 0.0047857710546 0.0049487096369 0.0051651578009 
0.0054349342642 0.0057572062639 0.0061303669754 0.0065519123907 0.007018322268 0.0075249505733 0.0080659350618 0.0086341424465 0.0092211736628 
0.0098159614656 0.010407561914 0.010984451113 0.011534610779 0.012045928424 0.012506658039 0.012905924959 0.013234250876 0.013484069601 
0.013650201442 0.013730253857 0.013724919012 0.013638145142 0.013477167607 0.013252395958 0.012977163621 0.012667353975 0.012340917328 
0.012017284212 0.011716659936 0.011459158155 0.011263809066 0.011147666387 0.011126166006 0.0067302134679 0.0065778117487 0.0063854636062 
0.0061682642017 0.005941295263 0.0057180574823 0.0055097012756 0.0053249561374 0.0051704552643 0.0050511868949 0.0049709227499 0.0049325652142 
0.0049383967722 0.004990230476 0.0050894719398 0.0052371158084 0.005433703189 0.0056792584843 0.0059732115472 0.0063143032144 0.0067004732574 
0.007128736142 0.0075950563268 0.0080942412893 0.0086198745361 0.0091643113672 0.0097168691289 0.010267377651 0.010805043614 0.011318558781 
0.01179648683 0.012227709391 0.012601915086 0.012910108274 0.013145108371 0.013302007092 0.013378550126 0.013375412345 0.013296341817 
0.013148156833 0.012940591075 0.012685993368 0.012398897849 0.012095486129 0.01179296434 0.011508877506 0.011260394108 0.011063651658 
0.010933374258 0.010883209158 0.0070646720805 0.006844844746 0.006612891431 0.0063772371777 0.0061465637782 0.0059287771707 0.005730576545 
0.0055574369937 0.0054137630671 0.005303082229 0.0052282325587 0.0051915286829 0.0051948910008 0.0052399258051 0.005327956496 0.0054600172575 
0.0056368196569 0.0058586941585 0.0061255024516 0.0064365186051 0.0067902853325 0.007184458981 0.0076156611617 0.0080793572266 0.0085697809037 
0.009079921172 0.0095994115975 0.010118615033 0.010627222676 0.011114349254 0.011568908231 0.011980051054 0.012337653688 0.012632826172 
0.012858414648 0.013009461127 0.013083584919 0.013081252086 0.013005905502 0.012863937631 0.012664500396 0.012419159924 0.012141416528 
0.011846120785 0.011548823945 0.011265106494 0.011009937422 0.010797133431 0.010639004722 0.010546207902 0.0074150182171 0.0071237589407 
0.0068448576932 0.0065810851992 0.0063358822516 0.0061127308534 0.00591483515 0.0057449883427 0.0056055323492 0.0054983878552 0.0054251431057 
0.0053871704452 0.0053857303989 0.0054220355198 0.0054972674911 0.0056125524379 0.0057688982177 0.0059670936091 0.0062075706251 0.006490237855 
0.0068142992648 0.0071780745753 0.0075788371214 0.0080126840023 0.0084744514741 0.0089576868078 0.0094523319376 0.0099490592938 0.01043784933 
0.010908000354 0.011348497038 0.011748451373 0.01209759824 0.012386819647 0.012608664938 0.012757829488 0.01283155246 0.012829896466 
0.012755878219 0.012615429652 0.012417182981 0.012172089024 0.011892894 0.011593514168 0.01128835772 0.010991648543 0.010716805528 
0.010475919343 0.010279330392 0.010135191227 0.007754186908 0.0073907667718 0.0070603401817 0.00676157613 0.0064940976113 0.0062580301655 
0.0060536838998 0.005881343008 0.0057411802026 0.0056332942299 0.0055578268685 0.0055150940609 0.005505678338 0.0055304600212 0.0055905890317 
0.0056874062332 0.0058223210727 0.0059966514907 0.0062114355774 0.0064672286053 0.0067638993466 0.0071004365609 0.0074747751209 0.0078836511388 
0.0083224963212 0.0087853829689 0.0092626029314 0.0097449194359 0.010222442758 0.0106844529 0.0111197668 0.0115171878 0.011866018595 
0.012156610382 0.012380913562 0.012532989531 0.012609440493 0.012609715844 0.012536259866 0.012394476763 0.012192504793 0.011940809634 
0.011651626223 0.011338295357 0.011014552961 0.010693833531 0.010388641127 0.010110015952 0.0098670733199 0.0096665008974 0.0080584684433 
0.0076232439843 0.0072389020076 0.0069013385062 0.0066072514511 0.0063538686591 0.0061387286926 0.0059595653656 0.0058143316038 0.0057013263702 
0.0056193486437 0.0055678106365 0.0055467777923 0.0055569359347 0.0055994997725 0.0056760753761 0.0057884856321 0.0059385680023 0.0061279561677 
0.0063578569765 0.0066288305011 0.006940578202 0.0072917452453 0.0076797459491 0.0081006246439 0.0085489662781 0.0090154961517 0.0094908482422 
0.0099651362934 0.0104274575 0.010866260642 0.011269806946 0.011626704995 0.011926492008 0.012160225266 0.012321040384 0.012404629273 
0.012409591315 0.012337617144 0.012193476423 0.011984798263 0.01172165382 0.011415972851 0.011080845853 0.010729776767 0.010375954356 
0.010031598852 0.0097074110256 0.0094121012794 0.0091519082964 0.0083063110048 0.0078007962483 0.007362517251 0.0069851316942 0.0066626238676 
0.0063893679218 0.0061601535758 0.0059702704112 0.0058156627109 0.0056931004452 0.0056003037326 0.0055359887046 0.0054998362644 0.0054924009108 
0.0055149747087 0.0055694146836 0.0056579400045 0.0057829071549 0.0059465723004 0.0061508477865 0.0063970563769 0.0066856871614 0.0070161608189 
0.0073866162747 0.0077937340113 0.0082326121154 0.008694544865 0.0091698253171 0.0096484847158 0.010119314595 0.010570233458 0.010988758031 
0.011362561841 0.011680093889 0.011931220102 0.012107841441 0.012204437219 0.012218481291 0.012150684085 0.012005025609 0.011788563007 
0.011511019548 0.011184187289 0.010821198669 0.010435738205 0.01004126961 0.0096503416368 0.009274006227 0.0089213363217 0.0085989745882 
0.008478601398 0.0079057753555 0.0074153736974 0.0069987485285 0.0066471338632 0.0063521203047 0.0061059584883 0.0059018081641 0.0057339446472 
0.0055978967558 0.0054905011494 0.0054098818015 0.0053553739831 0.0053274071431 0.0053273512896 0.0053573277812 0.0054199882999 0.0055182692307 
0.0056551289757 0.0058332733062 0.0060548725926 0.0063212774652 0.0066327437649 0.0069881810776 0.0073849408918 0.0078186599049 0.0082814075781 
0.0087629494338 0.0092531950181 0.0097405506304 0.010212278537 0.010654974941 0.011055151926 0.011399897286 0.011677574385 0.011878513557 
0.011995639157 0.012024973531 0.011965963117 0.011821583502 0.01159819935 0.011305180597 0.010954304839 0.010559002633 0.010133522074 
0.0096920957224 0.0092481825329 0.008813828866 0.008399148881 0.0080118742528 0.0085586913214 0.0079225006429 0.0073825485317 0.0069277684814 
0.0065467434071 0.0062285256614 0.0059631478482 0.0057419505557 0.0055577759953 0.0054050533434 0.0052798037383 0.0051795915089 0.0051034364473 
0.0050516886437 0.0050258617417 0.0050284239654 0.0050625523763 0.0051318587488 0.0052400945384 0.0053908402823 0.0055871850643 0.0058314048342 
0.0061246515925 0.0064666675547 0.0068555396309 0.0072875092335 0.0077557088496 0.008249228741 0.0087578653204 0.0092696031076 0.0097709574511 
0.010247453283 0.010684227806 0.011066733 0.011381500667 0.0116169201 0.01176396836 0.011816827566 0.011773325178 0.011635143215 
0.011407761373 0.011100126115 0.010724069629 0.010293533951 0.0098236802431 0.0093299744487 0.0088273335811 0.0083293906831 0.0078478944811 
0.0073922118414 0.0085315949013 0.007836170188 0.0072493263105 0.0067576857729 0.0063474059416 0.0060052544739 0.0057192624574 0.0054790951959 
0.0052762373033 0.0051040588666 0.0049578094187 0.0048345639162 0.0047331254934 0.0046538807978 0.0045986056279 0.0045702253372 0.0045725388522 
0.0046099151431 0.0046869686523 0.0048082185465 0.0049777377929 0.0051988007231 0.0054735399821 0.0058026258377 0.0061849835817 0.0066175683717 
0.0070949530278 0.0076054463657 0.0081387905962 0.0086825588349 0.0092224686205 0.0097428529863 0.010227277848 0.010659285217 0.011023227568 
0.0113051436 0.011493612007 0.01158051055 0.011561605495 0.011436903545 0.011210716081 0.010891413534 0.010490882792 0.010023737466 
0.0095063623693 0.008955891677 0.0083892192341 0.00782211729 0.0072685001209 0.0067398221036 0.0083831414366 0.0076325446125 0.0070016248342 
0.0064748765081 0.0060361806075 0.0056701221245 0.0053627828077 0.0051021771831 0.0048784638389 0.0046840204491 0.0045134340361 0.0043634283403 
0.0042327341747 0.0041219055398 0.0040330877796 0.0039697471464 0.0039363705224 0.0039381412534 0.0039805945459 0.0040692554063 0.004209263903 
0.0044049948056 0.0046596807146 0.004975050879 0.0053510021594 0.005785323468 0.006274569882 0.0068061417758 0.0073698674759 0.0079529771228 
0.0085403888464 0.0091151629824 0.0096591235361 0.0101536353 0.010580507894 0.010922979304 0.011166713469 0.011300732144 0.011318193691 
0.011216933766 0.010999697629 0.01067402134 0.010251757226 0.0097482823402 0.0091814691299 0.0085705257923 0.0079348221158 0.0072928011947 
0.0066610411647 0.0060534846248 0.0080998316947 0.0072983658395 0.0066266625606 0.0060671422045 0.0056014120477 0.0052118654226 0.004882640036 
0.004600143108 0.0043532999222 0.0041336296317 0.0039352086027 0.0037545529576 0.0035904389129 0.0034436752438 0.0033168400262 0.0032139902427 
0.0031403483901 0.0031019671173 0.0031053718375 0.0031571822863 0.0032637162077 0.003430580382 0.0036622566276 0.0039616944606 0.0043299273277 
0.0047657345593 0.0052681366092 0.0058237339775 0.006422632476 0.0070518424227 0.0076955387951 0.0083354807826 0.0089516185032 0.0095228905049 
0.010028192469 0.010447474505 0.010762901456 0.010959990107 0.011028622472 0.010963829698 0.01076625043 0.010442192678 0.010003268434 
0.0094656207996 0.0088488154251 0.0081745105238 0.0074650421149 0.006742056655 0.0060252928782 0.0053315683394 0.0076692472785 0.006821768548 
0.0061130870119 0.0055234874785 0.0050322749357 0.0046196716843 0.0042679444604 0.0039620102215 0.0036897027583 0.0034418243375 0.0032120607519 
0.0029968091372 0.0027949512249 0.0026075931651 0.0024377833941 0.0022902121046 0.0021708910198 0.0020868106709 0.0020455729201 0.0020549982467 
0.0021227092946 0.002255693915 0.002459853661 0.0027395479274 0.0030971499236 0.0035326445345 0.0040477140145 0.0046288071105 0.0052664854864 
0.0059477098756 0.0066560387143 0.0073719714592 0.0080735094194 0.0087369517501 0.009337916695 0.0098525527265 0.010258876739 0.010538148786 
0.010676169026 0.010664368065 0.010500562483 0.010189267134 0.0097414962736 0.0091740434427 0.0085082962961 0.007768704397 0.0069810607576 
0.0061707703805 0.0053612582908 0.0045726235029 0.0070804016659 0.0061922789004 0.0054506912609 0.0048337690314 0.0043185772709 0.0038832798125 
0.0035084103922 0.0031775345925 0.0028775145757 0.0025985251151 0.0023339200894 0.0020800148137 0.0018358252553 0.0016027861351 0.0013844558945 
0.0011862079051 0.0010149038185 0.00087854464565 0.00078589597891 0.0007460851254 0.00076816922389 0.00086067500698 0.0010311136498 0.001285476929 
0.0016277206307 0.0020592320584 0.0025843139634 0.0031906212419 0.0038691722255 0.0046071167928 0.0053876250377 0.0061900745728 0.0069905251242 
0.0077624839532 0.0084779591357 0.0091087761307 0.0096281021826 0.010012087476 0.010241496825 0.010303177969 0.010191200044 0.009907505835 
0.0094619588105 0.0088717301196 0.0081600537754 0.007354465336 0.0064847109794 0.0055805518394 0.0046696831223 0.003775942782 0.0063237650666 
0.0054006430108 0.0046302891492 0.0039887905406 0.0034511265503 0.0029935585942 0.0025950221155 0.0022378333871 0.001907951424 0.001594965668 
0.0012919259387 0.00099509098293 0.00070364081661 0.00041937475427 0.00014640184805 -0.0001091776058 -0.00033960396421 -0.00053580900445 -0.00068779127025 
-0.00078502127836 -0.0008168809449 -0.00077313954321 -0.00064446494572 -0.00042296544613 -0.00010275842093 0.00031941350171 0.0008485083226 0.0014779616934 
0.0021976106497 0.002995329091 0.0038542941833 0.0047530279192 0.0056657662661 0.0065631631391 0.0074133456649 0.0081833160072 0.0088406593632 
0.0093554728932 0.0097023816165 0.0098624624524 0.0098248666066 0.0095879245934 0.0091595469865 0.0085568015307 0.0078046484471 0.0069339346323 
0.0059788585648 0.0049741932138 0.0039525735528 0.0029421147685 0.0053911925856 0.0044388657498 0.0036439684261 0.0029807370103 0.0024222384888 
0.0019429706268 0.0015203714469 0.0011355771057 0.00077369109394 0.00042375389513 7.8543965484e-05 -0.00026570462381 -0.00060961804657 -0.00095100751892 
-0.0012851943172 -0.001605335179 -0.0019027530178 -0.0021672808078 -0.0023876279996 -0.0025517789233 -0.0026474315194 -0.002662481875 -0.0025855550632 
-0.0024065746861 -0.0021173456065 -0.0017120689133 -0.0011874909516 -0.0005393884786 0.0002191371839 0.0010774704922 0.0020193280982 0.0030227740118 
0.0040604711707 0.005100282766 0.0061062846781 0.0070402159441 0.0078633515805 0.0085387274083 0.0090335824935 0.0093218189296 0.0093862229228 
0.0092201611142 0.0088284778357 0.0082273838254 0.0074432453756 0.0065103397592 0.0054678064895 0.0043561535267 0.003213735884 0.0020735942913 
0.0042760364616 0.0033004919579 0.00248545404 0.0018035024488 0.0012259483507 0.0007256495389 0.00027864343123 -0.00013503687174 -0.00053108117758 
-0.00092094839565 -0.0013120949076 -0.0017082896846 -0.0021099594961 -0.0025145348319 -0.0029167849848 -0.003309142021 -0.0036820206333 -0.0040241454804 
-0.0043228996986 -0.0045647083496 -0.004735469189 -0.004821040172 -0.0048077887298 -0.0046832016702 -0.004436545016 -0.0040595498303 -0.0035470996235 
-0.0028889533301 -0.0020969491437 -0.0011799779775 -0.00015326605863 0.00096130511962 0.0021352292725 0.0033338018051 0.0045170233513 0.0056410410741 
0.0066601456799 0.0075292800195 0.0082069356966 0.008658224008 0.0088578201805 0.0087924154994 0.0084622946059 0.0078817067506 0.0070778305023 
0.0060883307079 0.00495773776 0.003733085044 0.0024593596672 0.0011753150177 0.0029734262005 0.0019808801003 0.0011502754822 0.00045272281161 
-0.00014205179718 -0.00066267956406 -0.001134395 -0.0015781648318 -0.0020103973769 -0.0024430062098 -0.0028836675876 -0.0033361656286 -0.0038007613289 
-0.0042745515176 -0.0047518045105 -0.0052242731766 -0.0056814953527 -0.0061110969428 -0.0064991151596 -0.0068303594348 -0.007088826287 -0.0072581820973 
-0.0073223248205 -0.0072660326832 -0.0070757078046 -0.0067402385978 -0.0062520876137 -0.00559462572 -0.0047777046448 -0.0038073249107 -0.0026968825985 
-0.001467514486 -0.00014830294625 0.0012239045694 0.0026052079789 0.003946006146 0.0051930505871 0.0062921977615 0.0071917631594 0.0078462643308 
0.0082202144967 0.0082915177244 0.0080539541513 0.0075182652474 0.0067114806321 0.005674369806 0.0044572164085 0.0031144231736 0.0016986680751 
0.00025537107382 0.0014805049732 0.0004772936083 -0.00036426830179 -0.0010743081892 -0.0016844582845 -0.0022246395855 -0.0027212002316 -0.0031959970055 
-0.003666096571 -0.0041438522971 -0.004637182966 -0.0051499383605 -0.0056822817628 -0.0062310520953 -0.006790091635 -0.0073505411957 -0.0079011150529 
-0.0084283736333 -0.008917014336 -0.0093502013564 -0.0097099547435 -0.0099776173856 -0.010134416455 -0.01016213298 -0.010043890213 -0.0097650680508 
-0.0093143304116 -0.0086735973715 -0.0078442094585 -0.0068293771946 -0.0056399987715 -0.004295640263 -0.0028251605428 -0.0012668856608 0.00033181018164 
0.001915661891 0.003423525407 0.0047912977837 0.005955696519 0.0068587079248 0.0074523455726 0.0077031901914 0.0075960545806 0.0071360844574 
0.0063487176306 0.0052772003823 0.0039777702017 0.0025130639119 0.00094466126488 -0.00067420436078 -0.00020349973426 -0.0012111368154 -0.0020591626843 
-0.0027786322723 -0.0034022510982 -0.0039610011924 -0.004482185147 -0.0049884607201 -0.0054975254629 -0.0060221938939 -0.0065706840201 -0.007146991165 
-0.0077512739296 -0.008380211802 -0.009027319062 -0.0096832171012 -0.010335878588 -0.010970863272 -0.011571568313 -0.012119517369 -0.012594712806 
-0.012976074563 -0.013241987307 -0.013370974093 -0.013342509181 -0.013137975068 -0.012741769171 -0.012135719929 -0.011309406368 -0.01026289781 
-0.0090034902791 -0.0075481034815 -0.0059243313661 -0.0041710423829 -0.0023383573228 -0.00048681034835 0.0013144900292 0.0029908301794 0.0044660160797 
0.0056675164209 0.0065322728774 0.0070125859259 0.0070812682169 0.0067351382665 0.0059959851622 0.0049084250918 0.003534582369 0.0019461554569 
0.00021498019259 -0.0015965345106 -0.0020773144998 -0.0030834512198 -0.0039336603705 -0.0046595472093 -0.0052945741472 -0.005870553679 -0.0064156025076 
-0.0069531194248 -0.0075014370475 -0.0080738825282 -0.008679057524 -0.0093212090774 -0.010000610684 -0.01071390906 -0.011454418972 -0.012212367461 
-0.012975101273 -0.013727278728 -0.014451071386 -0.015126403161 -0.015731255321 -0.016242065601 -0.016634248165 -0.0168828575 -0.016963410933 
-0.016852861409 -0.016530634321 -0.015979328797 -0.015175116736 -0.014113742504 -0.012797674429 -0.011239941138 -0.0094656124558 -0.0075128860877 
-0.005433568264 -0.0032926944943 -0.0011670275538 0.00085779432391 0.0026915885421 0.0042453933464 0.0054383656883 0.0062051909681 0.0065030548215 
0.0063169808769 0.0056622937774 0.0045832300386 0.0031473231953 0.001436032899 -0.00046708027744 -0.0024888389103 -0.0041376720061 -0.005136880079 
-0.0059852827238 -0.0067146187919 -0.0073587773782 -0.0079501765963 -0.0085176251252 -0.0090852280233 -0.0096719864544 -0.010291824099 -0.010953845738 
-0.011662693327 -0.012418912784 -0.013219282311 -0.014057081662 -0.014922302316 -0.015801812332 -0.016679498309 -0.017536412028 -0.018350952409 
-0.019099114796 -0.019754840118 -0.020290496068 -0.020677521152 -0.020887260545 -0.020892023393 -0.020666413818 -0.02018913282 -0.019429518946 
-0.018374115978 -0.017019337994 -0.015373002896 -0.013456234235 -0.011305091246 -0.0089716608176 -0.0065242934353 -0.0040466325064 -0.0016350960807 
0.00060545336904 0.0025679434091 0.0041510349891 0.0052681800193 0.0058567356194 0.0058856581429 0.0053600867315 0.0043212957318 0.0028411555718 
0.0010113268903 -0.0010713790705 -0.0033211879864 -0.0063793782963 -0.0073669370173 -0.0082099635416 -0.0089398770159 -0.0095906422658 -0.010195056191 
-0.010782512822 -0.01137781952 -0.012000722483 -0.012665876881 -0.013383064452 -0.014157518421 -0.014990263098 -0.015878414119 -0.0168154152 
-0.017791209315 -0.018792357347 -0.019802127074 -0.02080058154 -0.02176469948 -0.02266856256 -0.023483645482 -0.024179245735 -0.024723090243 
-0.025082156983 -0.025223754611 -0.025116930451 -0.024734403043 -0.02404516752 -0.023020224299 -0.021649029725 -0.019932900621 -0.017887500976 
-0.015545075357 -0.012956259327 -0.010191092762 -0.0073387972105 -0.0045058525549 -0.0018119468801 0.0006164789199 0.002655071869 0.0041923039928 