# vtk DataFile Version 4.1
vtk output
ASCII
DATASET STRUCTURED_GRID
DIMENSIONS 51 51 1
POINTS 2601 float
0 0 0 0.02 0 0 0.04 0 0 
0.06 0 0 0.08 0 0 0.1 0 0 
0.12 0 0 0.14 0 0 0.16 0 0 
0.18 0 0 0.2 0 0 0.22 0 0 
0.24 0 0 0.26 0 0 0.28 0 0 
0.3 0 0 0.32 0 0 0.34 0 0 
0.36 0 0 0.38 0 0 0.4 0 0 
0.42 0 0 0.44 0 0 0.46 0 0 
0.48 0 0 0.5 0 0 0.52 0 0 
0.54 0 0 0.56 0 0 0.58 0 0 
0.6 0 0 0.62 0 0 0.64 0 0 
0.66 0 0 0.68 0 0 0.7 0 0 
0.72 0 0 0.74 0 0 0.76 0 0 
0.78 0 0 0.8 0 0 0.82 0 0 
0.84 0 0 0.86 0 0 0.88 0 0 
0.9 0 0 0.92 0 0 0.94 0 0 
0.96 0 0 0.98 0 0 1 0 0 
0 0.02 0 0.02 0.02 0 0.04 0.02 0 
0.06 0.02 0 0.08 0.02 0 0.1 0.02 0 
0.12 0.02 0 0.14 0.02 0 0.16 0.02 0 
0.18 0.02 0 0.2 0.02 0 0.22 0.02 0 
0.24 0.02 0 0.26 0.02 0 0.28 0.02 0 
0.3 0.02 0 0.32 0.02 0 0.34 0.02 0 
0.36 0.02 0 0.38 0.02 0 0.4 0.02 0 
0.42 0.02 0 0.44 0.02 0 0.46 0.02 0 
0.48 0.02 0 0.5 0.02 0 0.52 0.02 0 
0.54 0.02 0 0.56 0.02 0 0.58 0.02 0 
0.6 0.02 0 0.62 0.02 0 0.64 0.02 0 
0.66 0.02 0 0.68 0.02 0 0.7 0.02 0 
0.72 0.02 0 0.74 0.02 0 0.76 0.02 0 
0.78 0.02 0 0.8 0.02 0 0.82 0.02 0 
0.84 0.02 0 0.86 0.02 0 0.88 0.02 0 
0.9 0.02 0 0.92 0.02 0 0.94 0.02 0 
0.96 0.02 0 0.98 0.02 0 1 0.02 0 
0 0.04 0 0.02 0.04 0 0.04 0.04 0 
0.06 0.04 0 0.08 0.04 0 0.1 0.04 0 
0.12 0.04 0 0.14 0.04 0 0.16 0.04 0 
0.18 0.04 0 0.2 0.04 0 0.22 0.04 0 
0.24 0.04 0 0.26 0.04 0 0.28 0.04 0 
0.3 0.04 0 0.32 0.04 0 0.34 0.04 0 
0.36 0.04 0 0.38 0.04 0 0.4 0.04 0 
0.42 0.04 0 0.44 0.04 0 0.46 0.04 0 
0.48 0.04 0 0.5 0.04 0 0.52 0.04 0 
0.54 0.04 0 0.56 0.04 0 0.58 0.04 0 
0.6 0.04 0 0.62 0.04 0 0.64 0.04 0 
0.66 0.04 0 0.68 0.04 0 0.7 0.04 0 
0.72 0.04 0 0.74 0.04 0 0.76 0.04 0 
0.78 0.04 0 0.8 0.04 0 0.82 0.04 0 
0.84 0.04 0 0.86 0.04 0 0.88 0.04 0 
0.9 0.04 0 0.92 0.04 0 0.94 0.04 0 
0.96 0.04 0 0.98 0.04 0 1 0.04 0 
0 0.06 0 0.02 0.06 0 0.04 0.06 0 
0.06 0.06 0 0.08 0.06 0 0.1 0.06 0 
0.12 0.06 0 0.14 0.06 0 0.16 0.06 0 
0.18 0.06 0 0.2 0.06 0 0.22 0.06 0 
0.24 0.06 0 0.26 0.06 0 0.28 0.06 0 
0.3 0.06 0 0.32 0.06 0 0.34 0.06 0 
0.36 0.06 0 0.38 0.06 0 0.4 0.06 0 
0.42 0.06 0 0.44 0.06 0 0.46 0.06 0 
0.48 0.06 0 0.5 0.06 0 0.52 0.06 0 
0.54 0.06 0 0.56 0.06 0 0.58 0.06 0 
0.6 0.06 0 0.62 0.06 0 0.64 0.06 0 
0.66 0.06 0 0.68 0.06 0 0.7 0.06 0 
0.72 0.06 0 0.74 0.06 0 0.76 0.06 0 
0.78 0.06 0 0.8 0.06 0 0.82 0.06 0 
0.84 0.06 0 0.86 0.06 0 0.88 0.06 0 
0.9 0.06 0 0.92 0.06 0 0.94 0.06 0 
0.96 0.06 0 0.98 0.06 0 1 0.06 0 
0 0.08 0 0.02 0.08 0 0.04 0.08 0 
0.06 0.08 0 0.08 0.08 0 0.1 0.08 0 
0.12 0.08 0 0.14 0.08 0 0.16 0.08 0 
0.18 0.08 0 0.2 0.08 0 0.22 0.08 0 
0.24 0.08 0 0.26 0.08 0 0.28 0.08 0 
0.3 0.08 0 0.32 0.08 0 0.34 0.08 0 
0.36 0.08 0 0.38 0.08 0 0.4 0.08 0 
0.42 0.08 0 0.44 0.08 0 0.46 0.08 0 
0.48 0.08 0 0.5 0.08 0 0.52 0.08 0 
0.54 0.08 0 0.56 0.08 0 0.58 0.08 0 
0.6 0.08 0 0.62 0.08 0 0.64 0.08 0 
0.66 0.08 0 0.68 0.08 0 0.7 0.08 0 
0.72 0.08 0 0.74 0.08 0 0.76 0.08 0 
0.78 0.08 0 0.8 0.08 0 0.82 0.08 0 
0.84 0.08 0 0.86 0.08 0 0.88 0.08 0 
0.9 0.08 0 0.92 0.08 0 0.94 0.08 0 
0.96 0.08 0 0.98 0.08 0 1 0.08 0 
0 0.1 0 0.02 0.1 0 0.04 0.1 0 
0.06 0.1 0 0.08 0.1 0 0.1 0.1 0 
0.12 0.1 0 0.14 0.1 0 0.16 0.1 0 
0.18 0.1 0 0.2 0.1 0 0.22 0.1 0 
0.24 0.1 0 0.26 0.1 0 0.28 0.1 0 
0.3 0.1 0 0.32 0.1 0 0.34 0.1 0 
0.36 0.1 0 0.38 0.1 0 0.4 0.1 0 
0.42 0.1 0 0.44 0.1 0 0.46 0.1 0 
0.48 0.1 0 0.5 0.1 0 0.52 0.1 0 
0.54 0.1 0 0.56 0.1 0 0.58 0.1 0 
0.6 0.1 0 0.62 0.1 0 0.64 0.1 0 
0.66 0.1 0 0.68 0.1 0 0.7 0.1 0 
0.72 0.1 0 0.74 0.1 0 0.76 0.1 0 
0.78 0.1 0 0.8 0.1 0 0.82 0.1 0 
0.84 0.1 0 0.86 0.1 0 0.88 0.1 0 
0.9 0.1 0 0.92 0.1 0 0.94 0.1 0 
0.96 0.1 0 0.98 0.1 0 1 0.1 0 
0 0.12 0 0.02 0.12 0 0.04 0.12 0 
0.06 0.12 0 0.08 0.12 0 0.1 0.12 0 
0.12 0.12 0 0.14 0.12 0 0.16 0.12 0 
0.18 0.12 0 0.2 0.12 0 0.22 0.12 0 
0.24 0.12 0 0.26 0.12 0 0.28 0.12 0 
0.3 0.12 0 0.32 0.12 0 0.34 0.12 0 
0.36 0.12 0 0.38 0.12 0 0.4 0.12 0 
0.42 0.12 0 0.44 0.12 0 0.46 0.12 0 
0.48 0.12 0 0.5 0.12 0 0.52 0.12 0 
0.54 0.12 0 0.56 0.12 0 0.58 0.12 0 
0.6 0.12 0 0.62 0.12 0 0.64 0.12 0 
0.66 0.12 0 0.68 0.12 0 0.7 0.12 0 
0.72 0.12 0 0.74 0.12 0 0.76 0.12 0 
0.78 0.12 0 0.8 0.12 0 0.82 0.12 0 
0.84 0.12 0 0.86 0.12 0 0.88 0.12 0 
0.9 0.12 0 0.92 0.12 0 0.94 0.12 0 
0.96 0.12 0 0.98 0.12 0 1 0.12 0 
0 0.14 0 0.02 0.14 0 0.04 0.14 0 
0.06 0.14 0 0.08 0.14 0 0.1 0.14 0 
0.12 0.14 0 0.14 0.14 0 0.16 0.14 0 
0.18 0.14 0 0.2 0.14 0 0.22 0.14 0 
0.24 0.14 0 0.26 0.14 0 0.28 0.14 0 
0.3 0.14 0 0.32 0.14 0 0.34 0.14 0 
0.36 0.14 0 0.38 0.14 0 0.4 0.14 0 
0.42 0.14 0 0.44 0.14 0 0.46 0.14 0 
0.48 0.14 0 0.5 0.14 0 0.52 0.14 0 
0.54 0.14 0 0.56 0.14 0 0.58 0.14 0 
0.6 0.14 0 0.62 0.14 0 0.64 0.14 0 
0.66 0.14 0 0.68 0.14 0 0.7 0.14 0 
0.72 0.14 0 0.74 0.14 0 0.76 0.14 0 
0.78 0.14 0 0.8 0.14 0 0.82 0.14 0 
0.84 0.14 0 0.86 0.14 0 0.88 0.14 0 
0.9 0.14 0 0.92 0.14 0 0.94 0.14 0 
0.96 0.14 0 0.98 0.14 0 1 0.14 0 
0 0.16 0 0.02 0.16 0 0.04 0.16 0 
0.06 0.16 0 0.08 0.16 0 0.1 0.16 0 
0.12 0.16 0 0.14 0.16 0 0.16 0.16 0 
0.18 0.16 0 0.2 0.16 0 0.22 0.16 0 
0.24 0.16 0 0.26 0.16 0 0.28 0.16 0 
0.3 0.16 0 0.32 0.16 0 0.34 0.16 0 
0.36 0.16 0 0.38 0.16 0 0.4 0.16 0 
0.42 0.16 0 0.44 0.16 0 0.46 0.16 0 
0.48 0.16 0 0.5 0.16 0 0.52 0.16 0 
0.54 0.16 0 0.56 0.16 0 0.58 0.16 0 
0.6 0.16 0 0.62 0.16 0 0.64 0.16 0 
0.66 0.16 0 0.68 0.16 0 0.7 0.16 0 
0.72 0.16 0 0.74 0.16 0 0.76 0.16 0 
0.78 0.16 0 0.8 0.16 0 0.82 0.16 0 
0.84 0.16 0 0.86 0.16 0 0.88 0.16 0 
0.9 0.16 0 0.92 0.16 0 0.94 0.16 0 
0.96 0.16 0 0.98 0.16 0 1 0.16 0 
0 0.18 0 0.02 0.18 0 0.04 0.18 0 
0.06 0.18 0 0.08 0.18 0 0.1 0.18 0 
0.12 0.18 0 0.14 0.18 0 0.16 0.18 0 
0.18 0.18 0 0.2 0.18 0 0.22 0.18 0 
0.24 0.18 0 0.26 0.18 0 0.28 0.18 0 
0.3 0.18 0 0.32 0.18 0 0.34 0.18 0 
0.36 0.18 0 0.38 0.18 0 0.4 0.18 0 
0.42 0.18 0 0.44 0.18 0 0.46 0.18 0 
0.48 0.18 0 0.5 0.18 0 0.52 0.18 0 
0.54 0.18 0 0.56 0.18 0 0.58 0.18 0 
0.6 0.18 0 0.62 0.18 0 0.64 0.18 0 
0.66 0.18 0 0.68 0.18 0 0.7 0.18 0 
0.72 0.18 0 0.74 0.18 0 0.76 0.18 0 
0.78 0.18 0 0.8 0.18 0 0.82 0.18 0 
0.84 0.18 0 0.86 0.18 0 0.88 0.18 0 
0.9 0.18 0 0.92 0.18 0 0.94 0.18 0 
0.96 0.18 0 0.98 0.18 0 1 0.18 0 
0 0.2 0 0.02 0.2 0 0.04 0.2 0 
0.06 0.2 0 0.08 0.2 0 0.1 0.2 0 
0.12 0.2 0 0.14 0.2 0 0.16 0.2 0 
0.18 0.2 0 0.2 0.2 0 0.22 0.2 0 
0.24 0.2 0 0.26 0.2 0 0.28 0.2 0 
0.3 0.2 0 0.32 0.2 0 0.34 0.2 0 
0.36 0.2 0 0.38 0.2 0 0.4 0.2 0 
0.42 0.2 0 0.44 0.2 0 0.46 0.2 0 
0.48 0.2 0 0.5 0.2 0 0.52 0.2 0 
0.54 0.2 0 0.56 0.2 0 0.58 0.2 0 
0.6 0.2 0 0.62 0.2 0 0.64 0.2 0 
0.66 0.2 0 0.68 0.2 0 0.7 0.2 0 
0.72 0.2 0 0.74 0.2 0 0.76 0.2 0 
0.78 0.2 0 0.8 0.2 0 0.82 0.2 0 
0.84 0.2 0 0.86 0.2 0 0.88 0.2 0 
0.9 0.2 0 0.92 0.2 0 0.94 0.2 0 
0.96 0.2 0 0.98 0.2 0 1 0.2 0 
0 0.22 0 0.02 0.22 0 0.04 0.22 0 
0.06 0.22 0 0.08 0.22 0 0.1 0.22 0 
0.12 0.22 0 0.14 0.22 0 0.16 0.22 0 
0.18 0.22 0 0.2 0.22 0 0.22 0.22 0 
0.24 0.22 0 0.26 0.22 0 0.28 0.22 0 
0.3 0.22 0 0.32 0.22 0 0.34 0.22 0 
0.36 0.22 0 0.38 0.22 0 0.4 0.22 0 
0.42 0.22 0 0.44 0.22 0 0.46 0.22 0 
0.48 0.22 0 0.5 0.22 0 0.52 0.22 0 
0.54 0.22 0 0.56 0.22 0 0.58 0.22 0 
0.6 0.22 0 0.62 0.22 0 0.64 0.22 0 
0.66 0.22 0 0.68 0.22 0 0.7 0.22 0 
0.72 0.22 0 0.74 0.22 0 0.76 0.22 0 
0.78 0.22 0 0.8 0.22 0 0.82 0.22 0 
0.84 0.22 0 0.86 0.22 0 0.88 0.22 0 
0.9 0.22 0 0.92 0.22 0 0.94 0.22 0 
0.96 0.22 0 0.98 0.22 0 1 0.22 0 
0 0.24 0 0.02 0.24 0 0.04 0.24 0 
0.06 0.24 0 0.08 0.24 0 0.1 0.24 0 
0.12 0.24 0 0.14 0.24 0 0.16 0.24 0 
0.18 0.24 0 0.2 0.24 0 0.22 0.24 0 
0.24 0.24 0 0.26 0.24 0 0.28 0.24 0 
0.3 0.24 0 0.32 0.24 0 0.34 0.24 0 
0.36 0.24 0 0.38 0.24 0 0.4 0.24 0 
0.42 0.24 0 0.44 0.24 0 0.46 0.24 0 
0.48 0.24 0 0.5 0.24 0 0.52 0.24 0 
0.54 0.24 0 0.56 0.24 0 0.58 0.24 0 
0.6 0.24 0 0.62 0.24 0 0.64 0.24 0 
0.66 0.24 0 0.68 0.24 0 0.7 0.24 0 
0.72 0.24 0 0.74 0.24 0 0.76 0.24 0 
0.78 0.24 0 0.8 0.24 0 0.82 0.24 0 
0.84 0.24 0 0.86 0.24 0 0.88 0.24 0 
0.9 0.24 0 0.92 0.24 0 0.94 0.24 0 
0.96 0.24 0 0.98 0.24 0 1 0.24 0 
0 0.26 0 0.02 0.26 0 0.04 0.26 0 
0.06 0.26 0 0.08 0.26 0 0.1 0.26 0 
0.12 0.26 0 0.14 0.26 0 0.16 0.26 0 
0.18 0.26 0 0.2 0.26 0 0.22 0.26 0 
0.24 0.26 0 0.26 0.26 0 0.28 0.26 0 
0.3 0.26 0 0.32 0.26 0 0.34 0.26 0 
0.36 0.26 0 0.38 0.26 0 0.4 0.26 0 
0.42 0.26 0 0.44 0.26 0 0.46 0.26 0 
0.48 0.26 0 0.5 0.26 0 0.52 0.26 0 
0.54 0.26 0 0.56 0.26 0 0.58 0.26 0 
0.6 0.26 0 0.62 0.26 0 0.64 0.26 0 
0.66 0.26 0 0.68 0.26 0 0.7 0.26 0 
0.72 0.26 0 0.74 0.26 0 0.76 0.26 0 
0.78 0.26 0 0.8 0.26 0 0.82 0.26 0 
0.84 0.26 0 0.86 0.26 0 0.88 0.26 0 
0.9 0.26 0 0.92 0.26 0 0.94 0.26 0 
0.96 0.26 0 0.98 0.26 0 1 0.26 0 
0 0.28 0 0.02 0.28 0 0.04 0.28 0 
0.06 0.28 0 0.08 0.28 0 0.1 0.28 0 
0.12 0.28 0 0.14 0.28 0 0.16 0.28 0 
0.18 0.28 0 0.2 0.28 0 0.22 0.28 0 
0.24 0.28 0 0.26 0.28 0 0.28 0.28 0 
0.3 0.28 0 0.32 0.28 0 0.34 0.28 0 
0.36 0.28 0 0.38 0.28 0 0.4 0.28 0 
0.42 0.28 0 0.44 0.28 0 0.46 0.28 0 
0.48 0.28 0 0.5 0.28 0 0.52 0.28 0 
0.54 0.28 0 0.56 0.28 0 0.58 0.28 0 
0.6 0.28 0 0.62 0.28 0 0.64 0.28 0 
0.66 0.28 0 0.68 0.28 0 0.7 0.28 0 
0.72 0.28 0 0.74 0.28 0 0.76 0.28 0 
0.78 0.28 0 0.8 0.28 0 0.82 0.28 0 
0.84 0.28 0 0.86 0.28 0 0.88 0.28 0 
0.9 0.28 0 0.92 0.28 0 0.94 0.28 0 
0.96 0.28 0 0.98 0.28 0 1 0.28 0 
0 0.3 0 0.02 0.3 0 0.04 0.3 0 
0.06 0.3 0 0.08 0.3 0 0.1 0.3 0 
0.12 0.3 0 0.14 0.3 0 0.16 0.3 0 
0.18 0.3 0 0.2 0.3 0 0.22 0.3 0 
0.24 0.3 0 0.26 0.3 0 0.28 0.3 0 
0.3 0.3 0 0.32 0.3 0 0.34 0.3 0 
0.36 0.3 0 0.38 0.3 0 0.4 0.3 0 
0.42 0.3 0 0.44 0.3 0 0.46 0.3 0 
0.48 0.3 0 0.5 0.3 0 0.52 0.3 0 
0.54 0.3 0 0.56 0.3 0 0.58 0.3 0 
0.6 0.3 0 0.62 0.3 0 0.64 0.3 0 
0.66 0.3 0 0.68 0.3 0 0.7 0.3 0 
0.72 0.3 0 0.74 0.3 0 0.76 0.3 0 
0.78 0.3 0 0.8 0.3 0 0.82 0.3 0 
0.84 0.3 0 0.86 0.3 0 0.88 0.3 0 
0.9 0.3 0 0.92 0.3 0 0.94 0.3 0 
0.96 0.3 0 0.98 0.3 0 1 0.3 0 
0 0.32 0 0.02 0.32 0 0.04 0.32 0 
0.06 0.32 0 0.08 0.32 0 0.1 0.32 0 
0.12 0.32 0 0.14 0.32 0 0.16 0.32 0 
0.18 0.32 0 0.2 0.32 0 0.22 0.32 0 
0.24 0.32 0 0.26 0.32 0 0.28 0.32 0 
0.3 0.32 0 0.32 0.32 0 0.34 0.32 0 
0.36 0.32 0 0.38 0.32 0 0.4 0.32 0 
0.42 0.32 0 0.44 0.32 0 0.46 0.32 0 
0.48 0.32 0 0.5 0.32 0 0.52 0.32 0 
0.54 0.32 0 0.56 0.32 0 0.58 0.32 0 
[...]
CELL_DATA 2500
FIELD FieldData 1
pressure 1 2500 double
0.0061597443476 0.0060967373759 0.0059114954369 0.0056387852271 0.0053190326029 0.004987817934 0.0046722700444 0.0043908038708 0.0041550215712 
0.0039722300271 0.0038473167413 0.0037836407168 0.0037833273316 0.0038474686379 0.0039764297624 0.0041701658234 0.0044283813719 0.0047504682486 
0.0051352842637 0.005580884259 0.0060842849238 0.006641287128 0.0072463413494 0.0078924360539 0.0085710011288 0.009271826821 0.0099826402408 
0.010690255425 0.011380763363 0.012039649348 0.012652220721 0.013204135152 0.013681994983 0.014073973394 0.01437043629 0.01456452343 
0.01465265364 0.014634922387 0.014515366766 0.014302083123 0.014007196302 0.013646696053 0.013240171174 0.012810477611 0.012383373203 
0.011987020251 0.011651223887 0.011405508871 0.011273959731 0.011261509021 0.0062302756433 0.0061682891331 0.0060075278096 0.0057780133231 
0.0055117759713 0.0052364114642 0.0049726686188 0.0047352180339 0.0045345475089 0.0043784010043 0.0042724131056 0.0042203740725 0.0042245700614 
0.0042862747711 0.0044062053153 0.0045847609177 0.0048220166529 0.0051175685895 0.0054703457802 0.0058784509872 0.0063390325685 0.0068481653218 
0.0074007279146 0.0079902869078 0.0086090129083 0.0092476614774 0.009894678211 0.010538103248 0.011165381056 0.011763440743 0.012319110799 
0.01281960396 0.013253053537 0.013609073373 0.013879310219 0.01405795624 0.014142189344 0.014132511765 0.014032963116 0.013851193291 
0.013598392813 0.013289091206 0.012940841891 0.012573809712 0.012210258597 0.01187388333 0.011588791318 0.011377931452 0.011260464962 
0.011249062723 0.0064294699814 0.0063330986452 0.0061653392396 0.0059514703601 0.0057152020697 0.0054755342926 0.0052469657247 0.0050409426447 
0.0048667793016 0.0047317569748 0.0046410472354 0.0045979897919 0.0046046973928 0.004662641271 0.0047729548544 0.0049364454242 0.0051534627306 
0.0054237661792 0.005746438479 0.0061198176243 0.0065414045237 0.007007733333 0.0075142264368 0.0080550717934 0.0086231560521 0.0092100771479 
0.0098047615931 0.010396256295 0.010973038148 0.011523097225 0.012034333954 0.01249501741 0.012894288085 0.013222680196 0.013472635157 
0.01363897515 0.013719304487 0.013714308758 0.013627927362 0.013467384385 0.013243074812 0.012968314392 0.012658967026 0.012332963432 
0.012009716081 0.011709413756 0.011452155859 0.011256961095 0.011140875091 0.011119326622 0.0067163263253 0.0065619799396 0.0063672941498 
0.0061499970224 0.0059247975459 0.0057032911087 0.005495347168 0.0053098667004 0.0051544581304 0.0050348802611 0.0049550299531 0.0049174972749 
0.0049242226053 0.0049768643179 0.0050768256448 0.0052251207554 0.0054222598213 0.005668206653 0.0059623594076 0.0063034882119 0.0066896072331 
0.0071178075937 0.0075840973453 0.0080832861595 0.0086089335905 0.0091533675405 0.009705895912 0.010256346071 0.0107939361 0.011307374565 
0.011785242986 0.012216440059 0.012590669056 0.012898944509 0.01313409057 0.013291198853 0.013368011612 0.013365198322 0.013286499763 
0.013138723927 0.012931590506 0.012677431784 0.012390764518 0.012087753795 0.011785590707 0.011501806147 0.011253555906 0.011056966394 
0.010926751905 0.010876548514 0.0070505183943 0.0068278762547 0.0065944023455 0.0063594813606 0.0061301967464 0.0059129318774 0.0057142444622 
0.0055404549655 0.0053967394853 0.0052867433172 0.0052129304529 0.0051772076616 0.0051813289856 0.005226947303 0.0053154792515 0.0054479871569 
0.0056251488197 0.0058472613639 0.0061141983971 0.0064252869034 0.0067791273931 0.007173405623 0.0076047356467 0.0080685529267 0.008559061272 
0.0090692344776 0.009588715216 0.010107876447 0.010616426798 0.011103498224 0.011558020103 0.011969158566 0.012326801674 0.012622067263 
0.012847804806 0.012999056319 0.013073439134 0.013071415801 0.0129964232 0.012854844021 0.012655816782 0.012410892491 0.012133556209 
0.011838644345 0.011541694696 0.011258274667 0.011003341256 0.010790700361 0.010632652351 0.010539843249 0.0073993629515 0.0071055688322 
0.0068259434042 0.006562913293 0.0063184418123 0.0060954550849 0.0058975828019 0.0057281642491 0.0055896013547 0.0054834642512 0.0054109904729 
0.0053734651355 0.0053722861917 0.0054088407416 0.0054843893014 0.0056000355435 0.005756731246 0.0059552341739 0.0061959824686 0.0064789058668 
0.0068032186708 0.0071672309586 0.0075681947681 0.0080021888491 0.0084640435546 0.0089473123966 0.0094419580378 0.0099386629676 0.010427420066 
0.010897539273 0.011338017651 0.011737980177 0.012087172871 0.012376485223 0.012598470668 0.012747826436 0.012821792018 0.012820428316 
0.012746746901 0.012606670306 0.01240881818 0.012164127684 0.011885331313 0.011586332133 0.011281525 0.010985120806 0.010710526808 
0.010469823544 0.010273342932 0.010129229368 0.0077364351178 0.0073713667752 0.007040850714 0.0067427700628 0.0064759892093 0.006240633112 
0.0060372156015 0.0058659332524 0.0057266306804 0.00561917455 0.0055437614938 0.0055009596762 0.0054915909534 0.0055166310824 0.0055771906067 
0.0056745189176 0.0058099510018 0.0059847675743 0.0061999935722 0.0064561771886 0.0067531788652 0.0070899804991 0.0074645164422 0.0078735299644 
0.0083124643151 0.0087754022388 0.0092526508882 0.0097349740111 0.010212487205 0.010674479039 0.011109778946 0.011507204321 0.01185606993 
0.012146735696 0.01237115815 0.012523403107 0.012600075382 0.012600623988 0.012527488575 0.01238606437 0.012184477959 0.011933182305 
0.01164439902 0.01133145531 0.011008073091 0.010687673852 0.010382750708 0.010104335035 0.0098615355159 0.0096610342304 0.0080388693863 
0.0076031426631 0.0072192246973 0.0068824572636 0.0065893877715 0.006337230433 0.0061232730625 0.0059448746963 0.0057998246592 0.0056866026495 
0.0056043679878 0.0055528174277 0.0055320972323 0.0055428120574 0.0055860463625 0.0056633065358 0.0057763622914 0.0059270259443 0.0061169168615 
0.0063472345506 0.0066185413339 0.0069305503345 0.0072819227025 0.0076700865785 0.0080910934692 0.0085395281901 0.0090061211831 0.0094815010564 
0.0099557862001 0.010418084802 0.010856861143 0.01126039246 0.011617300677 0.011917133433 0.012150956581 0.012311912689 0.012395698084 
0.012400912612 0.012329242642 0.012185449346 0.011977150817 0.011714405692 0.011409129943 0.011074399622 0.01072370435 0.010370220475 
0.010026158435 0.0097022115911 0.0094070850877 0.0091470135757 0.0082858199227 0.0077806989111 0.0073430508311 0.0069665075891 0.0066451462152 
0.0063730851085 0.0061446623325 0.0059549528726 0.0058001027369 0.0056772985069 0.0055845744256 0.0055207067864 0.005485249235 0.0054785928556 
0.0055019268396 0.0055570720784 0.0056462408345 0.0057717840721 0.0059359510205 0.0061406537873 0.0063872245253 0.006676165804 0.0070069080826 
0.0073775924652 0.0077848946198 0.0082239047066 0.0086859199902 0.0091612308029 0.0096398776377 0.01011066713 0.010561535606 0.010980016602 
0.011353797757 0.011671340282 0.011922521141 0.012099250451 0.01219601326 0.01221028452 0.012142770876 0.011997444473 0.01178135196 
0.011504204051 0.011177778698 0.010815193738 0.010430119984 0.010036009722 0.009645402794 0.0092693443232 0.0089169021399 0.0085947151341 
0.0084581476038 0.0078859540999 0.007396032473 0.0069801465491 0.0066295491083 0.0063354048257 0.0060896207682 0.0058854405775 0.005717519248 
0.0055817077438 0.0054749010924 0.0053950733485 0.0053413790411 0.0053141558787 0.0053147736821 0.0053453856775 0.0054086606221 0.0055075299155 
0.0056449398 0.0058235888439 0.0060456457542 0.0063124595667 0.0066242812708 0.0069800129727 0.0073769982615 0.0078108685045 0.0082737011993 
0.0087552648061 0.0092454820053 0.0097327758131 0.010204426219 0.010647045856 0.011047161728 0.011391875997 0.011669565563 0.01187057178 
0.011987825822 0.012017351932 0.011958593706 0.011814520012 0.01159148602 0.011298849754 0.010948375378 0.010553479664 0.010128397955 
0.0096873517672 0.0092437908579 0.0088097539845 0.0083953491818 0.0080083037734 0.0085385352028 0.0079027058327 0.0073630356799 0.0069089408225 
0.0065287953713 0.006211224252 0.005946146688 0.0057251516495 0.0055413762552 0.0053893284071 0.0052648955304 0.0051654680122 0.0050899901752 
0.0050388455056 0.0050136180679 0.0050168186903 0.0050516234914 0.0051216182882 0.005230525299 0.0053819019686 0.0055788201354 0.0058235424302 
0.0061172113287 0.0064595634615 0.0068486834686 0.0072808138511 0.0077490992512 0.0082426350093 0.0087512306465 0.0092628861781 0.0097641334933 
0.010240514028 0.010677181665 0.01105960537 0.011374332744 0.011609765567 0.011756888868 0.011809888133 0.011766589954 0.01162867194 
0.011401606413 0.011094329695 0.010718662057 0.010288532704 0.0098190901848 0.0093257884389 0.008823533657 0.0083259494734 0.0078447769864 
0.0073893779706 0.0085114290951 0.0078161496888 0.0072296766871 0.0067388275406 0.0063293779941 0.0059878170738 0.0057022558255 0.0054625947982 
0.0052604245595 0.005089027625 0.0049435081135 0.0048208807942 0.0047199990535 0.0046413406649 0.0045867399028 0.0045591247501 0.0045622592607 
0.0046004669551 0.0046783219976 0.0048003127997 0.0049704910877 0.0051921190141 0.0054673247927 0.0057967790517 0.0061794089636 0.0066121725886 
0.0070896540768 0.0076001648181 0.0081334581749 0.008677121576 0.0092168891689 0.0097371119136 0.01022137466 0.010653238521 0.011017073271 
0.011298931439 0.011487401688 0.011574368114 0.011555599771 0.011431102722 0.011205184126 0.010886206603 0.010486046473 0.010019304602 
0.0095023520434 0.0089523089678 0.0083860561128 0.0078193542889 0.007266108681 0.0067377678349 0.0083627185663 0.0076124779913 0.006982261307 
0.0064564059349 0.0060184553696 0.0056529485909 0.0053461433344 0.0050861845597 0.0048631964578 0.0046694460257 0.0044994686361 0.0043500355513 
0.004219966917 0.0041098758601 0.0040219105055 0.0039595003092 0.0039270828925 0.0039297964276 0.0039731402442 0.0040626134984 0.0042033405539 
0.0043996893706 0.0046548915448 0.004970676727 0.0053469407705 0.0057814713534 0.0062708340588 0.0068024266753 0.0073660890758 0.0079490664233 
0.0085362944774 0.0091108526502 0.0096545850191 0.010148876565 0.010575555646 0.010917876591 0.011161517229 0.011295510542 0.011313022776 
0.011211893437 0.010994866757 0.010669472907 0.010247554194 0.0097444741781 0.0091780898492 0.0085675933541 0.0079323392214 0.0072907572439 
0.0066594149484 0.0060522480445 0.0080793802804 0.0072787442303 0.0066079757938 0.0060492409046 0.0055840658519 0.0051950038719 0.0048663557513 
0.0045845405135 0.0043383959519 0.0041193842385 0.0039216108901 0.0037416647475 0.0035783714852 0.0034325397781 0.003306714021 0.0032049092498 
0.0031323109135 0.0030949411082 0.0030992999974 0.0031519879547 0.0032593099545 0.0034268652292 0.0036591303829 0.0039590487812 0.0043276472278 
0.0047637016259 0.0052662362172 0.0058218553353 0.0064206761189 0.0070497236269 0.0076931897978 0.0083328524693 0.0089486822587 0.0095196394989 
0.010024641623 0.010443659605 0.010758877755 0.010955829877 0.011024411093 0.010959660422 0.0107622181 0.010438387775 0.0099997718408 
0.0094624994325 0.0088461196164 0.0081722730742 0.0074632786388 0.0067407674483 0.0060244655814 0.0053311820161 0.0076493143382 0.006802970618 
0.0060951274709 0.005506034076 0.0050152052261 0.0046030914188 0.0042520187603 0.0039468236301 0.003675258887 0.0034281259279 0.0031991632019 
0.0029848087446 0.0027839433408 0.0025976450285 0.0024289319172 0.0022824715965 0.0021642572282 0.0020812593158 0.0020410578979 0.0020514530511 
0.0021200502015 0.0022538227415 0.0024586588339 0.0027389052089 0.0030969257196 0.0035327024676 0.0040479228106 0.004629041894 0.0052666302199 
0.0059476603406 0.0066557057712 0.0073712844796 0.0080724199867 0.0087354365029 0.0093359785392 0.0098502208081 0.010256205292 0.01053521431 
0.010673065602 0.010661201181 0.010497442015 0.010186300876 0.0097387839252 0.009171671398 0.008506334111 0.0077672028737 0.0069800513274 
0.0061702665199 0.0053612580421 0.0045731141276 0.007061429461 0.0061743641971 0.0054333073762 0.0048166757661 0.0043018717148 0.0038671941109 
0.0034931045478 0.0031630502876 0.0028638525013 0.0025857206015 0.0023220510189 0.0020691663383 0.0018260625215 0.0015941531861 0.0013769856188 
0.0011799256467 0.0010098213856 0.00087465153689 0.0007831548593 0.00074443227466 0.0007675168251 0.00086091359852 0.0010321149932 0.0012870989993 
0.0016298151074 0.0020616500858 0.0025869021324 0.0031932467579 0.0038716973323 0.0046094122906 0.0053895765201 0.0061915877222 0.0069915308552 
0.0077629422152 0.0084778606397 0.0091081424877 0.0096269846723 0.010010564034 0.010239667207 0.010301157506 0.010189112649 0.0099054772501 
0.0094601096508 0.0088701693623 0.008158873696 0.0073537380154 0.0064844864659 0.0055808589903 0.0046705320896 0.0037773304862 0.0063058863359 
0.005383519044 0.0046134663816 0.0039722714811 0.0034351642843 0.0029783775309 0.0025807000401 0.0022243618743 0.0018953379777 0.0015832713847 
0.0012812393499 0.00098549372773 0.00069519849239 0.00041214464255 0.00014043727193 -0.00011383351815 -0.00034292963321 -0.00053781271966 -0.00068851328268 
-0.00078453243843 -0.00081528061682 -0.00077055194901 -0.00064103287653 -0.00041884198895 -9.8098927969e-05 0.00032445947578 0.00085372541381 0.0014832424603 
0.0022027819454 0.0030002327 0.0038587890242 0.0047569956399 0.0056691171542 0.0065658400268 0.0074153253411 0.0081846092807 0.0088413102541 
0.0093555563472 0.0097019994841 0.0098617378957 0.0098239373413 0.0095869355625 0.0091586420274 0.0085561150693 0.0078042984929 0.0069340174609 
0.0059794455584 0.0049753310406 0.003954286632 0.0029444116693 0.0053743671152 0.0044225561075 0.0036279641375 0.0029652196545 0.0024074514897 
0.0019290219524 0.001507248872 0.0011232627473 0.00076223198186 0.00041325127886 6.9111037682e-05 -0.00027396686309 -0.00061662133693 -0.00095667232994 
-0.0012894532808 -0.0016081421947 -0.0019040914333 -0.0021671667774 -0.0023861101066 -0.0025489374409 -0.002643376283 -0.0026573465603 -0.0025794891055 
-0.0023997370114 -0.0021099021505 -0.0017041934027 -0.0011793731951 -0.00053120312699 0.0002271983793 0.0010852235703 0.0020266068213 0.0030294376274 
0.0040664100384 0.0051054210382 0.0061105812841 0.0070436656379 0.0078659858759 0.0085406139429 0.0090348222885 0.0093225414975 0.0093865794872 
0.0092203164465 0.0088286003436 0.0082276353031 0.0074437719747 0.0065112647301 0.0054692254672 0.0043581338234 0.0032163188149 0.0020768024713 
0.0042602854072 0.0032852154892 0.0024706446391 0.0017893523525 0.0012125722376 0.00071303736487 0.00026676111406 -0.00014615380161 -0.00054131892895 
-0.00093016017082 -0.0013201402676 -0.0017150466883 -0.0021153233062 -0.002518417981 -0.0029191220691 -0.003309894994 -0.003681181637 -0.0040217372264 
-0.0043189759182 -0.0045593544104 -0.0047287989942 -0.0048131893098 -0.0047989085889 -0.0046734575715 -0.0044261161226 -0.0040486289814 -0.0035358952182 
-0.0028776623129 -0.002085796048 -0.0011691716528 -0.00014299397592 0.00097088214737 0.0021439803193 0.0033416278828 0.0045238599759 0.0056468619038 
0.0066649656986 0.007533156418 0.0082099662057 0.0086605425516 0.0088595900486 0.0087938204993 0.0084635277065 0.0078829580566 0.0070792762163 
0.0060901237383 0.0049600010819 0.0037359097766 0.0024628069915 0.0011794242688 0.0029589192566 0.0019669337453 0.0011369471363 0.00044009919352 
-0.00015398282618 -0.00067396286072 -0.0011450074095 -0.0015879887162 -0.0020192630498 -0.0024507418503 -0.0028901218039 -0.0033412096706 -0.0038042875315 
-0.0042764744419 -0.0047520637034 -0.0052228351161 -0.0056783540498 -0.0061062750537 -0.0064926666499 -0.0068223701282 -0.0070794094534 -0.0072474731536 
-0.0073104793917 -0.0072532265298 -0.0070621357979 -0.006726112094 -0.0062376274511 -0.0055800821646 -0.004763312992 -0.0037933092226 -0.0026834479793 
-0.0014548436323 -0.00013655276418 0.0012346072899 0.0026147719469 0.0039543814476 0.0052002333273 0.0062982320352 0.0071967404098 0.0078503196912 
0.0082235202368 0.0082942741664 0.0080563773237 0.0075205734653 0.0067138814761 0.0056770483296 0.0044603260933 0.0031180822953 0.0017029608188 
0.00026035631777 0.0014674897109 0.00046492108355 -0.00037597676359 -0.0010853767402 -0.0016949451507 -0.0022345416244 -0.0027304109218 -0.003204341365 
-0.0036733865481 -0.0041499167928 -0.0046418727558 -0.0051531237233 -0.0056838521011 -0.0062309186346 -0.0067881905542 -0.007346834805 -0.0078955927715 
-0.0084210552781 -0.0089079533086 -0.0093394829934 -0.0096976918608 -0.0099639482854 -0.010119505101 -0.010146169146 -0.010027087941 -0.0097476612143 
-0.009296564474 -0.0086557344922 -0.0078264955727 -0.006812052145 -0.0056232892621 -0.0042797553677 -0.0028102857087 -0.0012531762006 0.00034423600973 
0.0019267299532 0.003433211249 0.0047996295035 0.0059627552307 0.0068646251635 0.007457297673 0.0077073897765 0.0075997379432 0.0071394971054 
0.0063520992279 0.0052807701834 0.0039817150832 0.0025175324818 0.00094976385719 -0.00066838633997 -0.00021479028717 -0.0012217723032 -0.0020691811287 
-0.0027881094835 -0.0034112160598 -0.0039693770597 -0.0044898105636 -0.0049951467427 -0.0055030919553 -0.0060264765257 -0.0065735309173 -0.0071482620687 
-0.0077508448572 -0.0083779823317 -0.0090232162652 -0.0096771960906 -0.010327924955 -0.010960997135 -0.01155984444 -0.012106021274 -0.012579558955 
-0.012959407138 -0.013223981459 -0.013351836264 -0.013322473551 -0.013117292858 -0.012720691523 -0.012114541878 -0.011288354549 -0.010242237782 
-0.0089834743101 -0.0075289669273 -0.0059062862473 -0.0041542703382 -0.0023230019332 -0.0004729695987 0.0013267695465 0.0030015569597 0.0044752557938 
0.0056753911331 0.0065389571592 0.0070182996763 0.0070862642918 0.0067396872284 0.0060003582346 0.0049128766716 0.0035393348256 0.0019513905862 
0.00022083760649 -0.0015899479687 -0.0020866916106 -0.0030922280944 -0.003941913996 -0.0046673469362 -0.0053018912669 -0.0058772583219 -0.0064215167488 
-0.0069580616072 -0.0075052332104 -0.0080763620776 -0.0086800512285 -0.0093205553398 -0.0099981681296 -0.010709566068 -0.011448095206 -0.012204014393 
-0.012964705843 -0.01371486408 -0.014436692811 -0.015110145991 -0.015713237109 -0.01622243855 -0.016613201127 -0.016860615054 -0.016940223543 
-0.016828990555 -0.016506343879 -0.015954888759 -0.015150793577 -0.014089816386 -0.012774418266 -0.011217612356 -0.0094444455038 -0.0074930847868 
-0.0054152984852 -0.0032760773609 -0.001152133452 0.00087095100757 0.0027030536734 0.0042552742935 0.0054468295206 0.0062124591068 0.0065093914501 
0.0063226774854 0.0056676506656 0.0045885361445 0.0031528375135 0.0014419726727 -0.0004605435411 -0.002481570494 -0.0041449851704 -0.0051436995879 
-0.00599169575 -0.0067206554899 -0.0073643557681 -0.0079551398785 -0.0085217941321 -0.0090884227864 -0.009674023481 -0.010292512012 -0.010952990518 
-0.011660113981 -0.012414457482 -0.013212833662 -0.014048555827 -0.014911651591 -0.015789026683 -0.016664600669 -0.017519454971 -0.01833202139 
-0.019078332716 -0.019732370194 -0.020266543342 -0.020652324851 -0.020861078242 -0.020865120146 -0.020639062389 -0.0201616216 -0.019402100751 
-0.018347100708 -0.016993017572 -0.015347651713 -0.013432102573 -0.01128239928 -0.0089505932585 -0.0065049931557 -0.0040291934106 -0.0016195562351 
0.00061911750247 0.0025798199968 0.0041612774835 0.005277004274 0.0058644099416 0.0058924886628 0.0053663983248 0.0043274095235 0.0028473667881 
0.0010178891779 -0.0010642606228 -0.0033133486307 -0.0063845241406 -0.0073717421293 -0.0082144954833 -0.0089441111549 -0.0095944539159 -0.010198272934 
-0.010784950701 -0.011379287763 -0.01200101755 -0.012664783764 -0.013380370863 -0.014153034984 -0.014983834436 -0.015869918861 -0.016804767602 
-0.017778362591 -0.01877729965 -0.019784875883 -0.02078118665 -0.021743249773 -0.02264519012 -0.023458528278 -0.024152603393 -0.024695169 
-0.025053216198 -0.025194063024 -0.025086763963 -0.024704031918 -0.024014925386 -0.022990408572 -0.021619937948 -0.019904814322 -0.017860678252 
-0.015519747182 -0.012932624969 -0.010169312714 -0.0073189854409 -0.0044880693996 -0.001796192457 0.00063026966207 0.0026670326148 0.004202637185 