# vtk DataFile Version 4.1
vtk output
ASCII
DATASET STRUCTURED_GRID
DIMENSIONS 51 51 1
POINTS 2601 float
0 0 0 0.02 0 0 0.04 0 0 
0.06 0 0 0.08 0 0 0.1 0 0 
0.12 0 0 0.14 0 0 0.16 0 0 
0.18 0 0 0.2 0 0 0.22 0 0 
0.24 0 0 0.26 0 0 0.28 0 0 
0.3 0 0 0.32 0 0 0.34 0 0 
0.36 0 0 0.38 0 0 0.4 0 0 
0.42 0 0 0.44 0 0 0.46 0 0 
0.48 0 0 0.5 0 0 0.52 0 0 
0.54 0 0 0.56 0 0 0.58 0 0 
0.6 0 0 0.62 0 0 0.64 0 0 
0.66 0 0 0.68 0 0 0.7 0 0 
0.72 0 0 0.74 0 0 0.76 0 0 
0.78 0 0 0.8 0 0 0.82 0 0 
0.84 0 0 0.86 0 0 0.88 0 0 
0.9 0 0 0.92 0 0 0.94 0 0 
0.96 0 0 0.98 0 0 1 0 0 
0 0.02 0 0.02 0.02 0 0.04 0.02 0 
0.06 0.02 0 0.08 0.02 0 0.1 0.02 0 
0.12 0.02 0 0.14 0.02 0 0.16 0.02 0 
0.18 0.02 0 0.2 0.02 0 0.22 0.02 0 
0.24 0.02 0 0.26 0.02 0 0.28 0.02 0 
0.3 0.02 0 0.32 0.02 0 0.34 0.02 0 
0.36 0.02 0 0.38 0.02 0 0.4 0.02 0 
0.42 0.02 0 0.44 0.02 0 0.46 0.02 0 
0.48 0.02 0 0.5 0.02 0 0.52 0.02 0 
0.54 0.02 0 0.56 0.02 0 0.58 0.02 0 
0.6 0.02 0 0.62 0.02 0 0.64 0.02 0 
0.66 0.02 0 0.68 0.02 0 0.7 0.02 0 
0.72 0.02 0 0.74 0.02 0 0.76 0.02 0 
0.78 0.02 0 0.8 0.02 0 0.82 0.02 0 
0.84 0.02 0 0.86 0.02 0 0.88 0.02 0 
0.9 0.02 0 0.92 0.02 0 0.94 0.02 0 
0.96 0.02 0 0.98 0.02 0 1 0.02 0 
0 0.04 0 0.02 0.04 0 0.04 0.04 0 
0.06 0.04 0 0.08 0.04 0 0.1 0.04 0 
0.12 0.04 0 0.14 0.04 0 0.16 0.04 0 
0.18 0.04 0 0.2 0.04 0 0.22 0.04 0 
0.24 0.04 0 0.26 0.04 0 0.28 0.04 0 
0.3 0.04 0 0.32 0.04 0 0.34 0.04 0 
0.36 0.04 0 0.38 0.04 0 0.4 0.04 0 
0.42 0.04 0 0.44 0.04 0 0.46 0.04 0 
0.48 0.04 0 0.5 0.04 0 0.52 0.04 0 
0.54 0.04 0 0.56 0.04 0 0.58 0.04 0 
0.6 0.04 0 0.62 0.04 0 0.64 0.04 0 
0.66 0.04 0 0.68 0.04 0 0.7 0.04 0 
0.72 0.04 0 0.74 0.04 0 0.76 0.04 0 
0.78 0.04 0 0.8 0.04 0 0.82 0.04 0 
0.84 0.04 0 0.86 0.04 0 0.88 0.04 0 
0.9 0.04 0 0.92 0.04 0 0.94 0.04 0 
0.96 0.04 0 0.98 0.04 0 1 0.04 0 
0 0.06 0 0.02 0.06 0 0.04 0.06 0 
0.06 0.06 0 0.08 0.06 0 0.1 0.06 0 
0.12 0.06 0 0.14 0.06 0 0.16 0.06 0 
0.18 0.06 0 0.2 0.06 0 0.22 0.06 0 
0.24 0.06 0 0.26 0.06 0 0.28 0.06 0 
0.3 0.06 0 0.32 0.06 0 0.34 0.06 0 
0.36 0.06 0 0.38 0.06 0 0.4 0.06 0 
0.42 0.06 0 0.44 0.06 0 0.46 0.06 0 
0.48 0.06 0 0.5 0.06 0 0.52 0.06 0 
0.54 0.06 0 0.56 0.06 0 0.58 0.06 0 
0.6 0.06 0 0.62 0.06 0 0.64 0.06 0 
0.66 0.06 0 0.68 0.06 0 0.7 0.06 0 
0.72 0.06 0 0.74 0.06 0 0.76 0.06 0 
0.78 0.06 0 0.8 0.06 0 0.82 0.06 0 
0.84 0.06 0 0.86 0.06 0 0.88 0.06 0 
0.9 0.06 0 0.92 0.06 0 0.94 0.06 0 
0.96 0.06 0 0.98 0.06 0 1 0.06 0 
0 0.08 0 0.02 0.08 0 0.04 0.08 0 
0.06 0.08 0 0.08 0.08 0 0.1 0.08 0 
0.12 0.08 0 0.14 0.08 0 0.16 0.08 0 
0.18 0.08 0 0.2 0.08 0 0.22 0.08 0 
0.24 0.08 0 0.26 0.08 0 0.28 0.08 0 
0.3 0.08 0 0.32 0.08 0 0.34 0.08 0 
0.36 0.08 0 0.38 0.08 0 0.4 0.08 0 
0.42 0.08 0 0.44 0.08 0 0.46 0.08 0 
0.48 0.08 0 0.5 0.08 0 0.52 0.08 0 
0.54 0.08 0 0.56 0.08 0 0.58 0.08 0 
0.6 0.08 0 0.62 0.08 0 0.64 0.08 0 
0.66 0.08 0 0.68 0.08 0 0.7 0.08 0 
0.72 0.08 0 0.74 0.08 0 0.76 0.08 0 
0.78 0.08 0 0.8 0.08 0 0.82 0.08 0 
0.84 0.08 0 0.86 0.08 0 0.88 0.08 0 
0.9 0.08 0 0.92 0.08 0 0.94 0.08 0 
0.96 0.08 0 0.98 0.08 0 1 0.08 0 
0 0.1 0 0.02 0.1 0 0.04 0.1 0 
0.06 0.1 0 0.08 0.1 0 0.1 0.1 0 
0.12 0.1 0 0.14 0.1 0 0.16 0.1 0 
0.18 0.1 0 0.2 0.1 0 0.22 0.1 0 
0.24 0.1 0 0.26 0.1 0 0.28 0.1 0 
0.3 0.1 0 0.32 0.1 0 0.34 0.1 0 
0.36 0.1 0 0.38 0.1 0 0.4 0.1 0 
0.42 0.1 0 0.44 0.1 0 0.46 0.1 0 
0.48 0.1 0 0.5 0.1 0 0.52 0.1 0 
0.54 0.1 0 0.56 0.1 0 0.58 0.1 0 
0.6 0.1 0 0.62 0.1 0 0.64 0.1 0 
0.66 0.1 0 0.68 0.1 0 0.7 0.1 0 
0.72 0.1 0 0.74 0.1 0 0.76 0.1 0 
0.78 0.1 0 0.8 0.1 0 0.82 0.1 0 
0.84 0.1 0 0.86 0.1 0 0.88 0.1 0 
0.9 0.1 0 0.92 0.1 0 0.94 0.1 0 
0.96 0.1 0 0.98 0.1 0 1 0.1 0 
0 0.12 0 0.02 0.12 0 0.04 0.12 0 
0.06 0.12 0 0.08 0.12 0 0.1 0.12 0 
0.12 0.12 0 0.14 0.12 0 0.16 0.12 0 
0.18 0.12 0 0.2 0.12 0 0.22 0.12 0 
0.24 0.12 0 0.26 0.12 0 0.28 0.12 0 
0.3 0.12 0 0.32 0.12 0 0.34 0.12 0 
0.36 0.12 0 0.38 0.12 0 0.4 0.12 0 
0.42 0.12 0 0.44 0.12 0 0.46 0.12 0 
0.48 0.12 0 0.5 0.12 0 0.52 0.12 0 
0.54 0.12 0 0.56 0.12 0 0.58 0.12 0 
0.6 0.12 0 0.62 0.12 0 0.64 0.12 0 
0.66 0.12 0 0.68 0.12 0 0.7 0.12 0 
0.72 0.12 0 0.74 0.12 0 0.76 0.12 0 
0.78 0.12 0 0.8 0.12 0 0.82 0.12 0 
0.84 0.12 0 0.86 0.12 0 0.88 0.12 0 
0.9 0.12 0 0.92 0.12 0 0.94 0.12 0 
0.96 0.12 0 0.98 0.12 0 1 0.12 0 
0 0.14 0 0.02 0.14 0 0.04 0.14 0 
0.06 0.14 0 0.08 0.14 0 0.1 0.14 0 
0.12 0.14 0 0.14 0.14 0 0.16 0.14 0 
0.18 0.14 0 0.2 0.14 0 0.22 0.14 0 
0.24 0.14 0 0.26 0.14 0 0.28 0.14 0 
0.3 0.14 0 0.32 0.14 0 0.34 0.14 0 
0.36 0.14 0 0.38 0.14 0 0.4 0.14 0 
0.42 0.14 0 0.44 0.14 0 0.46 0.14 0 
0.48 0.14 0 0.5 0.14 0 0.52 0.14 0 
0.54 0.14 0 0.56 0.14 0 0.58 0.14 0 
0.6 0.14 0 0.62 0.14 0 0.64 0.14 0 
0.66 0.14 0 0.68 0.14 0 0.7 0.14 0 
0.72 0.14 0 0.74 0.14 0 0.76 0.14 0 
0.78 0.14 0 0.8 0.14 0 0.82 0.14 0 
0.84 0.14 0 0.86 0.14 0 0.88 0.14 0 
0.9 0.14 0 0.92 0.14 0 0.94 0.14 0 
0.96 0.14 0 0.98 0.14 0 1 0.14 0 
0 0.16 0 0.02 0.16 0 0.04 0.16 0 
0.06 0.16 0 0.08 0.16 0 0.1 0.16 0 
0.12 0.16 0 0.14 0.16 0 0.16 0.16 0 
0.18 0.16 0 0.2 0.16 0 0.22 0.16 0 
0.24 0.16 0 0.26 0.16 0 0.28 0.16 0 
0.3 0.16 0 0.32 0.16 0 0.34 0.16 0 
0.36 0.16 0 0.38 0.16 0 0.4 0.16 0 
0.42 0.16 0 0.44 0.16 0 0.46 0.16 0 
0.48 0.16 0 0.5 0.16 0 0.52 0.16 0 
0.54 0.16 0 0.56 0.16 0 0.58 0.16 0 
0.6 0.16 0 0.62 0.16 0 0.64 0.16 0 
0.66 0.16 0 0.68 0.16 0 0.7 0.16 0 
0.72 0.16 0 0.74 0.16 0 0.76 0.16 0 
0.78 0.16 0 0.8 0.16 0 0.82 0.16 0 
0.84 0.16 0 0.86 0.16 0 0.88 0.16 0 
0.9 0.16 0 0.92 0.16 0 0.94 0.16 0 
0.96 0.16 0 0.98 0.16 0 1 0.16 0 
0 0.18 0 0.02 0.18 0 0.04 0.18 0 
0.06 0.18 0 0.08 0.18 0 0.1 0.18 0 
0.12 0.18 0 0.14 0.18 0 0.16 0.18 0 
0.18 0.18 0 0.2 0.18 0 0.22 0.18 0 
0.24 0.18 0 0.26 0.18 0 0.28 0.18 0 
0.3 0.18 0 0.32 0.18 0 0.34 0.18 0 
0.36 0.18 0 0.38 0.18 0 0.4 0.18 0 
0.42 0.18 0 0.44 0.18 0 0.46 0.18 0 
0.48 0.18 0 0.5 0.18 0 0.52 0.18 0 
0.54 0.18 0 0.56 0.18 0 0.58 0.18 0 
0.6 0.18 0 0.62 0.18 0 0.64 0.18 0 
0.66 0.18 0 0.68 0.18 0 0.7 0.18 0 
0.72 0.18 0 0.74 0.18 0 0.76 0.18 0 
0.78 0.18 0 0.8 0.18 0 0.82 0.18 0 
0.84 0.18 0 0.86 0.18 0 0.88 0.18 0 
0.9 0.18 0 0.92 0.18 0 0.94 0.18 0 
0.96 0.18 0 0.98 0.18 0 1 0.18 0 
0 0.2 0 0.02 0.2 0 0.04 0.2 0 
0.06 0.2 0 0.08 0.2 0 0.1 0.2 0 
0.12 0.2 0 0.14 0.2 0 0.16 0.2 0 
0.18 0.2 0 0.2 0.2 0 0.22 0.2 0 
0.24 0.2 0 0.26 0.2 0 0.28 0.2 0 
0.3 0.2 0 0.32 0.2 0 0.34 0.2 0 
0.36 0.2 0 0.38 0.2 0 0.4 0.2 0 
0.42 0.2 0 0.44 0.2 0 0.46 0.2 0 
0.48 0.2 0 0.5 0.2 0 0.52 0.2 0 
0.54 0.2 0 0.56 0.2 0 0.58 0.2 0 
0.6 0.2 0 0.62 0.2 0 0.64 0.2 0 
0.66 0.2 0 0.68 0.2 0 0.7 0.2 0 
0.72 0.2 0 0.74 0.2 0 0.76 0.2 0 
0.78 0.2 0 0.8 0.2 0 0.82 0.2 0 
0.84 0.2 0 0.86 0.2 0 0.88 0.2 0 
0.9 0.2 0 0.92 0.2 0 0.94 0.2 0 
0.96 0.2 0 0.98 0.2 0 1 0.2 0 
0 0.22 0 0.02 0.22 0 0.04 0.22 0 
0.06 0.22 0 0.08 0.22 0 0.1 0.22 0 
0.12 0.22 0 0.14 0.22 0 0.16 0.22 0 
0.18 0.22 0 0.2 0.22 0 0.22 0.22 0 
0.24 0.22 0 0.26 0.22 0 0.28 0.22 0 
0.3 0.22 0 0.32 0.22 0 0.34 0.22 0 
0.36 0.22 0 0.38 0.22 0 0.4 0.22 0 
0.42 0.22 0 0.44 0.22 0 0.46 0.22 0 
0.48 0.22 0 0.5 0.22 0 0.52 0.22 0 
0.54 0.22 0 0.56 0.22 0 0.58 0.22 0 
0.6 0.22 0 0.62 0.22 0 0.64 0.22 0 
0.66 0.22 0 0.68 0.22 0 0.7 0.22 0 
0.72 0.22 0 0.74 0.22 0 0.76 0.22 0 
0.78 0.22 0 0.8 0.22 0 0.82 0.22 0 
0.84 0.22 0 0.86 0.22 0 0.88 0.22 0 
0.9 0.22 0 0.92 0.22 0 0.94 0.22 0 
0.96 0.22 0 0.98 0.22 0 1 0.22 0 
0 0.24 0 0.02 0.24 0 0.04 0.24 0 
0.06 0.24 0 0.08 0.24 0 0.1 0.24 0 
0.12 0.24 0 0.14 0.24 0 0.16 0.24 0 
0.18 0.24 0 0.2 0.24 0 0.22 0.24 0 
0.24 0.24 0 0.26 0.24 0 0.28 0.24 0 
0.3 0.24 0 0.32 0.24 0 0.34 0.24 0 
0.36 0.24 0 0.38 0.24 0 0.4 0.24 0 
0.42 0.24 0 0.44 0.24 0 0.46 0.24 0 
0.48 0.24 0 0.5 0.24 0 0.52 0.24 0 
0.54 0.24 0 0.56 0.24 0 0.58 0.24 0 
0.6 0.24 0 0.62 0.24 0 0.64 0.24 0 
0.66 0.24 0 0.68 0.24 0 0.7 0.24 0 
0.72 0.24 0 0.74 0.24 0 0.76 0.24 0 
0.78 0.24 0 0.8 0.24 0 0.82 0.24 0 
0.84 0.24 0 0.86 0.24 0 0.88 0.24 0 
0.9 0.24 0 0.92 0.24 0 0.94 0.24 0 
0.96 0.24 0 0.98 0.24 0 1 0.24 0 
0 0.26 0 0.02 0.26 0 0.04 0.26 0 
0.06 0.26 0 0.08 0.26 0 0.1 0.26 0 
0.12 0.26 0 0.14 0.26 0 0.16 0.26 0 
0.18 0.26 0 0.2 0.26 0 0.22 0.26 0 
0.24 0.26 0 0.26 0.26 0 0.28 0.26 0 
0.3 0.26 0 0.32 0.26 0 0.34 0.26 0 
0.36 0.26 0 0.38 0.26 0 0.4 0.26 0 
0.42 0.26 0 0.44 0.26 0 0.46 0.26 0 
0.48 0.26 0 0.5 0.26 0 0.52 0.26 0 
0.54 0.26 0 0.56 0.26 0 0.58 0.26 0 
0.6 0.26 0 0.62 0.26 0 0.64 0.26 0 
0.66 0.26 0 0.68 0.26 0 0.7 0.26 0 
0.72 0.26 0 0.74 0.26 0 0.76 0.26 0 
0.78 0.26 0 0.8 0.26 0 0.82 0.26 0 
0.84 0.26 0 0.86 0.26 0 0.88 0.26 0 
0.9 0.26 0 0.92 0.26 0 0.94 0.26 0 
0.96 0.26 0 0.98 0.26 0 1 0.26 0 
0 0.28 0 0.02 0.28 0 0.04 0.28 0 
0.06 0.28 0 0.08 0.28 0 0.1 0.28 0 
0.12 0.28 0 0.14 0.28 0 0.16 0.28 0 
0.18 0.28 0 0.2 0.28 0 0.22 0.28 0 
0.24 0.28 0 0.26 0.28 0 0.28 0.28 0 
0.3 0.28 0 0.32 0.28 0 0.34 0.28 0 
0.36 0.28 0 0.38 0.28 0 0.4 0.28 0 
0.42 0.28 0 0.44 0.28 0 0.46 0.28 0 
0.48 0.28 0 0.5 0.28 0 0.52 0.28 0 
0.54 0.28 0 0.56 0.28 0 0.58 0.28 0 
0.6 0.28 0 0.62 0.28 0 0.64 0.28 0 
0.66 0.28 0 0.68 0.28 0 0.7 0.28 0 
0.72 0.28 0 0.74 0.28 0 0.76 0.28 0 
0.78 0.28 0 0.8 0.28 0 0.82 0.28 0 
0.84 0.28 0 0.86 0.28 0 0.88 0.28 0 
0.9 0.28 0 0.92 0.28 0 0.94 0.28 0 
0.96 0.28 0 0.98 0.28 0 1 0.28 0 
0 0.3 0 0.02 0.3 0 0.04 0.3 0 
0.06 0.3 0 0.08 0.3 0 0.1 0.3 0 
0.12 0.3 0 0.14 0.3 0 0.16 0.3 0 
0.18 0.3 0 0.2 0.3 0 0.22 0.3 0 
0.24 0.3 0 0.26 0.3 0 0.28 0.3 0 
0.3 0.3 0 0.32 0.3 0 0.34 0.3 0 
0.36 0.3 0 0.38 0.3 0 0.4 0.3 0 
0.42 0.3 0 0.44 0.3 0 0.46 0.3 0 
0.48 0.3 0 0.5 0.3 0 0.52 0.3 0 
0.54 0.3 0 0.56 0.3 0 0.58 0.3 0 
0.6 0.3 0 0.62 0.3 0 0.64 0.3 0 
0.66 0.3 0 0.68 0.3 0 0.7 0.3 0 
0.72 0.3 0 0.74 0.3 0 0.76 0.3 0 
0.78 0.3 0 0.8 0.3 0 0.82 0.3 0 
0.84 0.3 0 0.86 0.3 0 0.88 0.3 0 
0.9 0.3 0 0.92 0.3 0 0.94 0.3 0 
0.96 0.3 0 0.98 0.3 0 1 0.3 0 
0 0.32 0 0.02 0.32 0 0.04 0.32 0 
0.06 0.32 0 0.08 0.32 0 0.1 0.32 0 
0.12 0.32 0 0.14 0.32 0 0.16 0.32 0 
0.18 0.32 0 0.2 0.32 0 0.22 0.32 0 
0.24 0.32 0 0.26 0.32 0 0.28 0.32 0 
0.3 0.32 0 0.32 0.32 0 0.34 0.32 0 
0.36 0.32 0 0.38 0.32 0 0.4 0.32 0 
0.42 0.32 0 0.44 0.32 0 0.46 0.32 0 
0.48 0.32 0 0.5 0.32 0 0.52 0.32 0 
0.54 0.32 0 0.56 0.32 0 0.58 0.32 0 
[...]
CELL_DATA 2500
FIELD FieldData 1
pressure 1 2500 double
0.0061817137497 0.0061154557152 0.005926800119 0.0056533223184 0.0053348434239 0.0050047434305 0.0046886688677 0.004405227877 0.0041672159396 
0.0039829526699 0.0038575604506 0.0037940408662 0.003794059948 0.0038584564083 0.003987555497 0.0041813528566 0.0044395752289 0.0047616056176 
0.0051462941263 0.0055917148711 0.0060949314391 0.0066518024221 0.0072568265352 0.00790301566 0.0085817916583 0.0092829098527 0.0099940481903 
0.010701978166 0.011392763511 0.012051876814 0.012664619779 0.013216644709 0.013694546361 0.014086489091 0.01438283105 0.014576707353 
0.014664536798 0.014646420367 0.014526405938 0.01431260466 0.014017159194 0.013656080016 0.013248979591 0.012818739893 0.012391145625 
0.0119943847 0.011658285094 0.01141238852 0.01128078326 0.011268375728 0.0062501836326 0.0061847748726 0.0060227645738 0.0057939646761 
0.0055283576938 0.0052523364682 0.0049870219596 0.0047481806614 0.0045469798119 0.0043910360277 0.0042854321556 0.0042335279727 0.0042375250199 
0.0042988401598 0.0044183505084 0.0045965258057 0.0048334397679 0.0051286751424 0.0054811699891 0.005889055184 0.0063495071424 0.0068586144999 
0.0074112518575 0.0080009662342 0.0086198986779 0.0092587734507 0.0099060085341 0.010549632314 0.011177085412 0.011775294186 0.0123310803 
0.012831645497 0.013265110571 0.013621078188 0.013891187142 0.014069625886 0.014153573599 0.014143538687 0.014043570744 0.013861332459 
0.013608029987 0.013298211688 0.0129494525 0.01258194008 0.012217960407 0.011881228514 0.011595869084 0.011384843707 0.011267318431 
0.011255958588 0.0064461377032 0.006347987562 0.0061808929244 0.0059679810469 0.0057314626859 0.0054907213277 0.0052614263578 0.0050555922417 
0.0048821300047 0.0047475453589 0.0046565775151 0.0046126821954 0.0046183643738 0.0046754126857 0.0047850613969 0.0049480702383 0.0051647181803 
0.005434735892 0.0057572119534 0.0061304911625 0.0065520633723 0.0070184380397 0.0075250118107 0.0080659534552 0.0086341385737 0.0092211615885 
0.0098159466718 0.010407546634 0.010984437911 0.011534601479 0.012045922301 0.012506652556 0.012905918092 0.013234242436 0.013484060598 
0.013650192784 0.013730245848 0.013724911589 0.013638138184 0.013477160996 0.013252389572 0.012977157453 0.012667348151 0.012340911949 
0.012017279244 0.011716655226 0.01145915358 0.011263804616 0.011147662048 0.011126161702 0.0067303966295 0.0065765763768 0.0063837348089 
0.0061671857687 0.005941502963 0.0057194863233 0.0055118002312 0.005327029347 0.0051719306401 0.0050517683051 0.0049706300664 0.0049316656828 
0.0049372629472 0.0049891962223 0.0050887460831 0.0052367652196 0.0054336814389 0.0056794522278 0.0059734885091 0.0063145534446 0.006700635906 
0.007128804245 0.0075950592677 0.008094216782 0.0086198477301 0.0091642906328 0.0097168539111 0.010267366803 0.010805037165 0.011318555671 
0.01179648424 0.012227704709 0.012601907773 0.012910099605 0.013145099769 0.013301999104 0.013378542637 0.013375405134 0.013296334779 
0.013148149908 0.012940584263 0.012685986831 0.012398891785 0.012095480592 0.011792959215 0.011508872626 0.011260389424 0.011063647193 
0.010933369964 0.010883204914 0.0070640405304 0.006843800449 0.0066123811237 0.0063777419232 0.0061479176311 0.0059304349849 0.0057319780896 
0.0055582125369 0.0054137811236 0.0053024344371 0.0052271836365 0.0051904168341 0.0051940038211 0.0052394136963 0.0053278211629 0.0054601596598 
0.0056371045084 0.0058589988136 0.0061257423622 0.0064366556307 0.006790324585 0.0071844347883 0.0076156148687 0.0080793172642 0.0085697560031 
0.009079907353 0.0095994032351 0.010118610055 0.010627220604 0.011114348321 0.011568905823 0.011980045876 0.012337646533 0.012632818619 
0.012858407523 0.013009454348 0.013083578175 0.01308124527 0.013005898671 0.012863930847 0.012664493797 0.012419153742 0.01214141089 
0.01184611562 0.011548819066 0.011265101779 0.011009932901 0.010797129128 0.010639000571 0.010546203783 0.0074146380433 0.007123679831 
0.0068452718197 0.0065817977542 0.0063365235994 0.006113045846 0.0059147769044 0.005744627924 0.0056049684672 0.0054977390586 0.0054245572497 
0.0053867851905 0.0053856085573 0.0054221394588 0.0054974944715 0.0056127960696 0.0057690899499 0.0059672082305 0.0062076111532 0.0064902214083 
0.0068142505853 0.007178020297 0.0075787965394 0.0080126623908 0.0084744425601 0.0089576819496 0.009452327257 0.0099490553686 0.010437846812 
0.010907997947 0.011348493042 0.011748445564 0.012097591744 0.012386813438 0.012608659071 0.012757823592 0.01283154636 0.01282989027 
0.01275587207 0.01261542364 0.012417177267 0.012172083768 0.011892889184 0.011593509621 0.011288353263 0.010991644156 0.0107168013 
0.010475915288 0.010279326445 0.010135187296 0.0077544793058 0.0073911416758 0.0070605286118 0.0067613742745 0.00649353118 0.0062573537376 
0.0060531734871 0.0058811097544 0.0057411713089 0.0056334151037 0.0055580248908 0.005515345586 0.0055059422033 0.0055306711805 0.005590695944 
0.0056874047183 0.0058222501121 0.0059965604108 0.0062113556789 0.0064671691164 0.0067638595785 0.0071004150093 0.0074747687691 0.0078836528912 
0.0083224976696 0.0087853794999 0.0092625960564 0.0097449125875 0.010222437254 0.010684447748 0.011119760949 0.011517181462 0.011866012577 
0.012156604935 0.012380908334 0.012532984218 0.012609435116 0.012609710553 0.012536254714 0.012394471774 0.012192500084 0.011940805259 
0.011651622069 0.011338291251 0.011014548817 0.010693829439 0.010388637192 0.010110012168 0.0098670696238 0.0096664972224 0.008058969297 
0.0076233432544 0.0072384431992 0.0069004658851 0.0066063592858 0.006353368281 0.0061387845675 0.0059600436812 0.0058149665926 0.0057019103164 
0.0056197933509 0.0055680968548 0.0055468981154 0.0055568916262 0.0055993269914 0.0056758488668 0.005788285656 0.00593844068 0.0061279016551 
0.0063578490612 0.0066288430641 0.0069405963725 0.0072917616721 0.0076797554525 0.0081006243779 0.0085489579748 0.0090154848742 0.0094908380917 
0.0099651281177 0.010427450259 0.010866253641 0.011269800441 0.011626699324 0.011926486951 0.012160220417 0.012321035593 0.012404624601 
0.01240958679 0.012337612693 0.012193472055 0.011984794082 0.011721649824 0.011415968921 0.011080841888 0.010729772797 0.010375950524 
0.010031595226 0.0097074075636 0.0094120979118 0.0091519049732 0.0083065187051 0.0078005445464 0.0073618826252 0.0069844237233 0.0066622337546 
0.0063895116204 0.0061607392311 0.0059710094471 0.0058162893326 0.0056934985856 0.0056004819073 0.0055359921145 0.0054997000779 0.005492163628 
0.0055147007124 0.0055691821772 0.0056578026446 0.0057828687128 0.0059465972627 0.0061508936768 0.0063970973429 0.0066857153142 0.0070161759838 
0.0073866192116 0.0077937266441 0.0082325990208 0.0086945313704 0.0091698142697 0.0096484759922 0.010119307074 0.010570226652 0.010988752069 
0.011362556677 0.011680089141 0.011931215485 0.012107836916 0.0122044328 0.012218476907 0.012150679669 0.01200502125 0.011788558825 
0.011511015523 0.011184183339 0.010821194769 0.010435734453 0.010041266121 0.0096503384066 0.0092740031789 0.0089213333816 0.0085989717234 
0.008478550508 0.0079055745017 0.0074150822141 0.0069985531742 0.0066472162709 0.006352485342 0.0061064291693 0.0059021769727 0.0057341149969 
0.0055978980314 0.0054904078684 0.0054097408478 0.0053551990507 0.0053272152621 0.005327183002 0.0053572274652 0.0054199709758 0.0055183110443 
0.0056551888288 0.0058333213625 0.0060549005788 0.0063212898287 0.0066327458265 0.0069881753339 0.0073849296108 0.0078186468663 0.0082813962247 
0.008762940788 0.0092531881912 0.0097405445903 0.010212272975 0.010654969884 0.011055147188 0.011399892593 0.01167756966 0.011878508845 
0.011995634457 0.012024968792 0.011965958383 0.011821578942 0.011598195067 0.011305176553 0.01095430098 0.010558998976 0.010133518714 
0.0096920926977 0.0092481797778 0.0088138262915 0.0083991464297 0.0080118719148 0.0085587258235 0.0079226096233 0.0073826087655 0.0069278021241 
0.0065468027797 0.006228587941 0.0059631413819 0.0057418435353 0.0055576131709 0.0054049109935 0.0052797227199 0.005179556194 0.0051034090618 
0.0050516537128 0.0050258355487 0.0050284283882 0.0050625877432 0.0051319033838 0.0052401257253 0.0053908511796 0.0055871829587 0.0058313989605 
0.0061246455292 0.006466660667 0.0068555316665 0.007287501692 0.0077557030164 0.0082492243485 0.0087578613276 0.0092695988864 0.0097709530061 
0.01024744873 0.010684223088 0.011066728098 0.011381495687 0.011616915127 0.011763963398 0.011816822626 0.01177332039 0.011635138752 
0.011407757276 0.011100122327 0.010724066114 0.010293530736 0.0098236773809 0.0093299719113 0.008827331286 0.0083293885656 0.007847892517 
0.0073922100383 0.0085318832732 0.0078364699485 0.0072494259442 0.0067575849164 0.0063471776259 0.0060049619996 0.0057189589482 0.00547884299 
0.0052760971288 0.005104054798 0.0049579084159 0.0048346957359 0.0047332289191 0.0046539360531 0.004598628435 0.0045702369455 0.0045725449986 
0.0046099097554 0.0046869494752 0.0048081936286 0.0049777181912 0.0051987912353 0.0054735378655 0.0058026260795 0.0061849835625 0.0066175679815 
0.0070949524449 0.0076054451259 0.0081387882216 0.0086825553937 0.0092224645301 0.0097428485463 0.010227273183 0.010659280464 0.011023222848 
0.011305138935 0.011493607378 0.011580506003 0.011561601184 0.01143689959 0.01121071247 0.010891410214 0.010490879745 0.010023734723 
0.0095063599516 0.0089558895379 0.0083892173195 0.0078221155774 0.007268498614 0.0067398208108 0.0083835425407 0.0076327809827 0.007001568424 
0.0064745996162 0.0060358103558 0.0056697727167 0.0053625349073 0.0051020747512 0.004878512001 0.0046841831205 0.0045136422427 0.004363607948 
0.0042328404756 0.0041219376498 0.0040330724192 0.0039697107515 0.0039363255513 0.0039380922977 0.0039805487329 0.0040692226899 0.0042092496781 
0.0044049958967 0.004659688929 0.0049750592711 0.0053510079711 0.005785326703 0.0062745709851 0.0068061409581 0.007369865092 0.0079529738036 
0.0085403851767 0.009115159238 0.0096591198061 0.010153631634 0.010580504269 0.010922975643 0.011166709745 0.011300728444 0.011318190167 
0.01121693049 0.010999694576 0.010674018488 0.010251754593 0.0097482799714 0.0091814670435 0.0085705239645 0.0079348205349 0.0072927998689 
0.006661040106 0.0060534838285 0.0081001217876 0.0072984367379 0.0066265154287 0.0060668843122 0.0056011576031 0.0052116959315 0.0048825887335 
0.0046002026495 0.004353439674 0.0041338054051 0.0039353686326 0.0037546536754 0.00359046484 0.0034436425579 0.0033167788249 0.0032139236263 
0.0031402865653 0.0031019150027 0.0031053354103 0.0031571660907 0.0032637182873 0.0034305926045 0.0036622700398 0.0039617040276 0.0043299324115 
0.0047657364202 0.0052681364098 0.0058237324757 0.0064226303238 0.0070518401855 0.0076955367449 0.0083354788848 0.0089516166342 0.0095228885479 
0.010028190303 0.010447472063 0.01076289878 0.010959987336 0.011028619745 0.010963827057 0.010766247869 0.010442190223 0.010003266145 
0.0094656187483 0.0088488136431 0.0081745090191 0.0074650409037 0.0067420557553 0.0060252922961 0.0053315680559 0.0076693472833 0.0068217537661 
0.0061130042588 0.0055233953671 0.0050322186323 0.0046196698225 0.0042679860358 0.0039620731717 0.0036897715581 0.0034418871621 0.003212100872 
0.0029968112351 0.0027949155305 0.0026075367205 0.00243772615 0.0022901644846 0.0021708545209 0.0020867855476 0.0020455611026 0.0020549997492 
0.0021227194221 0.0022557055371 0.0024598616651 0.0027395513123 0.0030971503762 0.0035326439248 0.0040477133154 0.0046288066649 0.0052664854224 
0.0059477101782 0.0066560391715 0.0073719717798 0.0080735094048 0.0087369512945 0.009337915757 0.0098525513486 0.010258875037 0.010538146904 
0.010676167055 0.010664366027 0.010500560409 0.0101892651 0.0097414943815 0.0091740417811 0.0085082949079 0.0077687033114 0.0069810600018 
0.0061707699717 0.0053612582287 0.0045726237648 0.007080385541 0.0061922879782 0.0054507284251 0.0048338151049 0.004318617468 0.0038832995621 
0.0035083962913 0.0031774898306 0.0028774605056 0.0025984809462 0.0023338877173 0.00207998644 0.0018357984537 0.0016027659454 0.0013844458369 
0.0011862049008 0.0010149025761 0.00087854347995 0.00078589641836 0.00074608774233 0.00076817204942 0.00086067568381 0.0010311118476 0.0012854743596 
0.0016277191995 0.0020592324709 0.0025843158557 0.0031906239572 0.0038691752234 0.0046071196715 0.0053876274754 0.0061900763906 0.006990526306 
0.0077624845512 0.0084779592239 0.009108775799 0.0096281015215 0.010012086559 0.010241495684 0.010303176628 0.01019119858 0.0099075043689 
0.009461957466 0.0088717289873 0.0081600529038 0.0073544647669 0.0064847107471 0.0055805519647 0.0046696836071 0.0037759436124 0.0063237296115 
0.005400700239 0.004630382978 0.0039888592622 0.0034511397517 0.0029935070541 0.0025949154772 0.002237704936 0.0019078437295 0.0015949036943 
0.0012919075196 0.0009951008653 0.00070366642794 0.0004194082951 0.00014643523509 -0.00010915311384 -0.00033959295827 -0.0005358095726 -0.00068779823209 
-0.0007850304817 -0.00081689031877 -0.0007731477417 -0.00064447042575 -0.00042296701894 -0.00010275618007 0.00031941826506 0.00084851401506 0.0014779672608 
0.0021976155734 0.0029953332091 0.0038542975039 0.0047530305672 0.0056657683995 0.0065631648572 0.0074133470059 0.0081833169728 0.0088406599444 
0.0093554730878 0.0097023814359 0.0098624619569 0.0098248659198 0.0095879238571 0.0091595463253 0.0085568010285 0.0078046481608 0.0069339346198 
0.0059788588748 0.0049741938799 0.0039525745876 0.0029421161726 0.0053911667148 0.004438924478 0.0036440367421 0.0029807577918 0.0024221954915 
0.0019428710671 0.0015202412861 0.0011354580773 0.00077362037704 0.00042374250396 7.8577402381e-05 -0.0002656487616 -0.00060955715237 -0.00095095335581 
-0.0012851558862 -0.0016053175871 -0.0019027547673 -0.0021672948439 -0.0023876461946 -0.0025517955064 -0.0026474434612 -0.0026624878966 -0.0025855550796 
-0.0024065698228 -0.0021173379559 -0.0017120606418 -0.0011874834503 -0.0005393821752 0.00021914244173 0.0010774750225 0.0020193321759 0.0030227778234 
0.0040604747763 0.0051002861069 0.0061062876439 0.0070402184279 0.0078633535187 0.0085387287917 0.0090335833654 0.0093218193961 0.0093862231293 
0.0092201611989 0.0088284779121 0.0082273839766 0.0074432456791 0.0065103402976 0.0054678073338 0.0043561547265 0.0032137374644 0.0020735962656 
0.0042759967352 0.0033005118482 0.0024854754571 0.0018034906644 0.0012259001427 0.00072557541577 0.00027856545782 -0.00013508933992 -0.00053108911378 
-0.00092091542936 -0.0013120401939 -0.001708232506 -0.0021099118046 -0.0025145027958 -0.0029167713481 -0.0033091455375 -0.0036820355704 -0.004024164 
-0.0043229153817 -0.004564717843 -0.004735471744 -0.0048210366485 -0.0048077809347 -0.004683191882 -0.0044365353227 -0.0040595414304 -0.0035470926556 
-0.0028889472742 -0.0020969434109 -0.0011799722174 -0.0001532601899 0.00096131099979 0.0021352349608 0.0033338070765 0.0045170280293 0.0056410450567 
0.0066601489435 0.0075292825994 0.0082069376737 0.0086582255052 0.008857821333 0.0087924164278 0.008462295417 0.0078817075426 0.0070778313851 
0.0060883317924 0.0049577391378 0.0037330867771 0.0024593617921 0.0011753175592 0.0029733587093 0.0019808697623 0.0011502839862 0.00045272793122 
-0.00014205549412 -0.00066269294558 -0.0011344108781 -0.0015781698901 -0.0020103848726 -0.0024429822026 -0.0028836436007 -0.0033361491079 -0.0038007536789 
-0.0042745514 -0.0047518101372 -0.0052242820339 -0.0056815039396 -0.0061111020408 -0.0064991152309 -0.0068303547255 -0.0070888180801 -0.0072581720229 
-0.0073223144343 -0.0072660231514 -0.0070756995929 -0.0067402313905 -0.0062520806605 -0.0055946183746 -0.0047776966601 -0.0038073164432 -0.0026968740059 
-0.001467506145 -0.00014829516165 0.0012239116086 0.0026052141907 0.0039460115213 0.0051930551603 0.006292201588 0.0071917663161 0.0078462669199 
0.008220216627 0.0082915195047 0.0080539556972 0.0075182666863 0.0067114821073 0.0056743714512 0.0044572183291 0.0031144254425 0.0016986707412 
0.00025537417543 0.0014804336851 0.00047728984646 -0.00036423848047 -0.001074267156 -0.0016844211823 -0.0022246197157 -0.0027212003434 -0.0031960095898 
-0.0036661143148 -0.0041438731575 -0.0046372061517 -0.0051499603314 -0.005682297598 -0.0062310590245 -0.0067900902111 -0.0073505337359 -0.0079011039017 
-0.0084283607 -0.0089170011843 -0.0093501891069 -0.0097099439587 -0.0099776081215 -0.010134408393 -0.010162125544 -0.010043882655 -0.009765059645 
-0.0093143207502 -0.0086735865408 -0.0078441979356 -0.0068293656033 -0.005639987632 -0.0042956298918 -0.002825151072 -0.0012668771003 0.00033181786681 
0.0019156687343 0.0034235314283 0.0047913029995 0.0059557009676 0.0068587116779 0.0074523487234 0.0077031928544 0.007596056893 0.0071360865781 
0.0063487197274 0.0052772026038 0.0039777726655 0.002513066705 0.00094466445381 -0.00067420072156 -0.00020353725656 -0.0012111137554 -0.0020591149035 
-0.0027785809382 -0.0034022148618 -0.003960995698 -0.004482211595 -0.0049885073509 -0.0054975787553 -0.0060222444028 -0.0065707247611 -0.0071470161312 
-0.0077512800383 -0.0083802010774 -0.0090272977294 -0.0096831922709 -0.010335855513 -0.010970844602 -0.011571554565 -0.012119507666 -0.012594705585 
-0.012976068137 -0.013241980254 -0.013370965463 -0.013342498541 -0.013137962493 -0.012741755175 -0.012135705309 -0.011309391876 -0.010262884 
-0.009003477405 -0.0075480915689 -0.0059243203427 -0.0041710321773 -0.0023383479183 -0.00048680177986 0.0013144977066 0.0029908369282 0.0044660219114 
0.0056675213977 0.0065322770974 0.0070125895199 0.0070812713435 0.0067351411059 0.0059959878972 0.0049084278838 0.0035345853521 0.0019461587401 
0.00021498386413 -0.0015965303784 -0.0020773061012 -0.0030834165872 -0.0039336251546 -0.004659520283 -0.0052945678092 -0.0058705773027 -0.0064156507206 
-0.0069531765625 -0.0075014890163 -0.0080739214101 -0.0086790792683 -0.0093212119171 -0.010000596439 -0.010713883859 -0.011454390924 -0.012212343001 
-0.012975083255 -0.013727266892 -0.014451063783 -0.015126397362 -0.015731249158 -0.016242057537 -0.016634237446 -0.016882844118 -0.016963395429 
-0.016852844622 -0.016530617148 -0.01597931197 -0.015175100683 -0.014113727354 -0.012797660111 -0.011239927539 -0.0094655995261 -0.0075128738653 
-0.0054335568565 -0.0032926840308 -0.0011670181397 0.00085780263945 0.0026915957782 0.0042453995748 0.0054383710159 0.0062051955345 0.0065030587946 
0.0063169844476 0.0056622971396 0.0045832333707 0.003147326655 0.0014360366223 -0.00046707617904 -0.002488834347 -0.0041376417552 -0.0051368643931 
-0.0059852803569 -0.0067146212099 -0.0073587894159 -0.0079502027276 -0.008517658475 -0.0090852571629 -0.0096720051949 -0.010291832065 -0.010953843991 
-0.01166268285 -0.012418896087 -0.013219263937 -0.014057066002 -0.014922291216 -0.015801804906 -0.016679492411 -0.017536405624 -0.018350944123 
-0.019099103928 -0.01975482653 -0.020290480107 -0.020677503509 -0.020887242033 -0.020892004743 -0.020666395539 -0.020189115141 -0.019429501842 
-0.018374099354 -0.017019321782 -0.01537298714 -0.013456219078 -0.011305076877 -0.0089716474248 -0.0065242811686 -0.0040466214555 -0.0016350862676 
0.00060546197989 0.0025679508893 0.004151041438 0.0052681855696 0.0058567404387 0.0058856624282 0.0053600906897 0.0043212995627 0.00284115946 
0.0010113309985 -0.001071374609 -0.0033211830653 -0.006379362078 -0.0073669534382 -0.00820998275 -0.0089398828066 -0.0095906408114 -0.010195054408 
-0.010782509315 -0.011377812165 -0.012000713966 -0.01266587116 -0.013383062199 -0.014157517614 -0.01499026217 -0.015878412964 -0.016815413725 
-0.017791206405 -0.018792351566 -0.019802117779 -0.020800569074 -0.021764684636 -0.022668546059 -0.023483627827 -0.024179227321 -0.024723071424 
-0.025082138048 -0.02522373574 -0.025116911682 -0.024734384303 -0.024045148779 -0.023020205604 -0.02164901126 -0.019932882654 -0.017887483775 
-0.015545059142 -0.012956244258 -0.010191078943 -0.0073387846923 -0.0045058413433 -0.0018119369491 0.00061648761776 0.0026550794107 0.0041923104975 