# vtk DataFile Version 4.1
vtk output
ASCII
DATASET STRUCTURED_GRID
DIMENSIONS 51 51 1
POINTS 2601 float
0 0 0 0.02 0 0 0.04 0 0 
0.06 0 0 0.08 0 0 0.1 0 0 
0.12 0 0 0.14 0 0 0.16 0 0 
0.18 0 0 0.2 0 0 0.22 0 0 
0.24 0 0 0.26 0 0 0.28 0 0 
0.3 0 0 0.32 0 0 0.34 0 0 
0.36 0 0 0.38 0 0 0.4 0 0 
0.42 0 0 0.44 0 0 0.46 0 0 
0.48 0 0 0.5 0 0 0.52 0 0 
0.54 0 0 0.56 0 0 0.58 0 0 
0.6 0 0 0.62 0 0 0.64 0 0 
0.66 0 0 0.68 0 0 0.7 0 0 
0.72 0 0 0.74 0 0 0.76 0 0 
0.78 0 0 0.8 0 0 0.82 0 0 
0.84 0 0 0.86 0 0 0.88 0 0 
0.9 0 0 0.92 0 0 0.94 0 0 
0.96 0 0 0.98 0 0 1 0 0 
0 0.02 0 0.02 0.02 0 0.04 0.02 0 
0.06 0.02 0 0.08 0.02 0 0.1 0.02 0 
0.12 0.02 0 0.14 0.02 0 0.16 0.02 0 
0.18 0.02 0 0.2 0.02 0 0.22 0.02 0 
0.24 0.02 0 0.26 0.02 0 0.28 0.02 0 
0.3 0.02 0 0.32 0.02 0 0.34 0.02 0 
0.36 0.02 0 0.38 0.02 0 0.4 0.02 0 
0.42 0.02 0 0.44 0.02 0 0.46 0.02 0 
0.48 0.02 0 0.5 0.02 0 0.52 0.02 0 
0.54 0.02 0 0.56 0.02 0 0.58 0.02 0 
0.6 0.02 0 0.62 0.02 0 0.64 0.02 0 
0.66 0.02 0 0.68 0.02 0 0.7 0.02 0 
0.72 0.02 0 0.74 0.02 0 0.76 0.02 0 
0.78 0.02 0 0.8 0.02 0 0.82 0.02 0 
0.84 0.02 0 0.86 0.02 0 0.88 0.02 0 
0.9 0.02 0 0.92 0.02 0 0.94 0.02 0 
0.96 0.02 0 0.98 0.02 0 1 0.02 0 
0 0.04 0 0.02 0.04 0 0.04 0.04 0 
0.06 0.04 0 0.08 0.04 0 0.1 0.04 0 
0.12 0.04 0 0.14 0.04 0 0.16 0.04 0 
0.18 0.04 0 0.2 0.04 0 0.22 0.04 0 
0.24 0.04 0 0.26 0.04 0 0.28 0.04 0 
0.3 0.04 0 0.32 0.04 0 0.34 0.04 0 
0.36 0.04 0 0.38 0.04 0 0.4 0.04 0 
0.42 0.04 0 0.44 0.04 0 0.46 0.04 0 
0.48 0.04 0 0.5 0.04 0 0.52 0.04 0 
0.54 0.04 0 0.56 0.04 0 0.58 0.04 0 
0.6 0.04 0 0.62 0.04 0 0.64 0.04 0 
0.66 0.04 0 0.68 0.04 0 0.7 0.04 0 
0.72 0.04 0 0.74 0.04 0 0.76 0.04 0 
0.78 0.04 0 0.8 0.04 0 0.82 0.04 0 
0.84 0.04 0 0.86 0.04 0 0.88 0.04 0 
0.9 0.04 0 0.92 0.04 0 0.94 0.04 0 
0.96 0.04 0 0.98 0.04 0 1 0.04 0 
0 0.06 0 0.02 0.06 0 0.04 0.06 0 
0.06 0.06 0 0.08 0.06 0 0.1 0.06 0 
0.12 0.06 0 0.14 0.06 0 0.16 0.06 0 
0.18 0.06 0 0.2 0.06 0 0.22 0.06 0 
0.24 0.06 0 0.26 0.06 0 0.28 0.06 0 
0.3 0.06 0 0.32 0.06 0 0.34 0.06 0 
0.36 0.06 0 0.38 0.06 0 0.4 0.06 0 
0.42 0.06 0 0.44 0.06 0 0.46 0.06 0 
0.48 0.06 0 0.5 0.06 0 0.52 0.06 0 
0.54 0.06 0 0.56 0.06 0 0.58 0.06 0 
0.6 0.06 0 0.62 0.06 0 0.64 0.06 0 
0.66 0.06 0 0.68 0.06 0 0.7 0.06 0 
0.72 0.06 0 0.74 0.06 0 0.76 0.06 0 
0.78 0.06 0 0.8 0.06 0 0.82 0.06 0 
0.84 0.06 0 0.86 0.06 0 0.88 0.06 0 
0.9 0.06 0 0.92 0.06 0 0.94 0.06 0 
0.96 0.06 0 0.98 0.06 0 1 0.06 0 
0 0.08 0 0.02 0.08 0 0.04 0.08 0 
0.06 0.08 0 0.08 0.08 0 0.1 0.08 0 
0.12 0.08 0 0.14 0.08 0 0.16 0.08 0 
0.18 0.08 0 0.2 0.08 0 0.22 0.08 0 
0.24 0.08 0 0.26 0.08 0 0.28 0.08 0 
0.3 0.08 0 0.32 0.08 0 0.34 0.08 0 
0.36 0.08 0 0.38 0.08 0 0.4 0.08 0 
0.42 0.08 0 0.44 0.08 0 0.46 0.08 0 
0.48 0.08 0 0.5 0.08 0 0.52 0.08 0 
0.54 0.08 0 0.56 0.08 0 0.58 0.08 0 
0.6 0.08 0 0.62 0.08 0 0.64 0.08 0 
0.66 0.08 0 0.68 0.08 0 0.7 0.08 0 
0.72 0.08 0 0.74 0.08 0 0.76 0.08 0 
0.78 0.08 0 0.8 0.08 0 0.82 0.08 0 
0.84 0.08 0 0.86 0.08 0 0.88 0.08 0 
0.9 0.08 0 0.92 0.08 0 0.94 0.08 0 
0.96 0.08 0 0.98 0.08 0 1 0.08 0 
0 0.1 0 0.02 0.1 0 0.04 0.1 0 
0.06 0.1 0 0.08 0.1 0 0.1 0.1 0 
0.12 0.1 0 0.14 0.1 0 0.16 0.1 0 
0.18 0.1 0 0.2 0.1 0 0.22 0.1 0 
0.24 0.1 0 0.26 0.1 0 0.28 0.1 0 
0.3 0.1 0 0.32 0.1 0 0.34 0.1 0 
0.36 0.1 0 0.38 0.1 0 0.4 0.1 0 
0.42 0.1 0 0.44 0.1 0 0.46 0.1 0 
0.48 0.1 0 0.5 0.1 0 0.52 0.1 0 
0.54 0.1 0 0.56 0.1 0 0.58 0.1 0 
0.6 0.1 0 0.62 0.1 0 0.64 0.1 0 
0.66 0.1 0 0.68 0.1 0 0.7 0.1 0 
0.72 0.1 0 0.74 0.1 0 0.76 0.1 0 
0.78 0.1 0 0.8 0.1 0 0.82 0.1 0 
0.84 0.1 0 0.86 0.1 0 0.88 0.1 0 
0.9 0.1 0 0.92 0.1 0 0.94 0.1 0 
0.96 0.1 0 0.98 0.1 0 1 0.1 0 
0 0.12 0 0.02 0.12 0 0.04 0.12 0 
0.06 0.12 0 0.08 0.12 0 0.1 0.12 0 
0.12 0.12 0 0.14 0.12 0 0.16 0.12 0 
0.18 0.12 0 0.2 0.12 0 0.22 0.12 0 
0.24 0.12 0 0.26 0.12 0 0.28 0.12 0 
0.3 0.12 0 0.32 0.12 0 0.34 0.12 0 
0.36 0.12 0 0.38 0.12 0 0.4 0.12 0 
0.42 0.12 0 0.44 0.12 0 0.46 0.12 0 
0.48 0.12 0 0.5 0.12 0 0.52 0.12 0 
0.54 0.12 0 0.56 0.12 0 0.58 0.12 0 
0.6 0.12 0 0.62 0.12 0 0.64 0.12 0 
0.66 0.12 0 0.68 0.12 0 0.7 0.12 0 
0.72 0.12 0 0.74 0.12 0 0.76 0.12 0 
0.78 0.12 0 0.8 0.12 0 0.82 0.12 0 
0.84 0.12 0 0.86 0.12 0 0.88 0.12 0 
0.9 0.12 0 0.92 0.12 0 0.94 0.12 0 
0.96 0.12 0 0.98 0.12 0 1 0.12 0 
0 0.14 0 0.02 0.14 0 0.04 0.14 0 
0.06 0.14 0 0.08 0.14 0 0.1 0.14 0 
0.12 0.14 0 0.14 0.14 0 0.16 0.14 0 
0.18 0.14 0 0.2 0.14 0 0.22 0.14 0 
0.24 0.14 0 0.26 0.14 0 0.28 0.14 0 
0.3 0.14 0 0.32 0.14 0 0.34 0.14 0 
0.36 0.14 0 0.38 0.14 0 0.4 0.14 0 
0.42 0.14 0 0.44 0.14 0 0.46 0.14 0 
0.48 0.14 0 0.5 0.14 0 0.52 0.14 0 
0.54 0.14 0 0.56 0.14 0 0.58 0.14 0 
0.6 0.14 0 0.62 0.14 0 0.64 0.14 0 
0.66 0.14 0 0.68 0.14 0 0.7 0.14 0 
0.72 0.14 0 0.74 0.14 0 0.76 0.14 0 
0.78 0.14 0 0.8 0.14 0 0.82 0.14 0 
0.84 0.14 0 0.86 0.14 0 0.88 0.14 0 
0.9 0.14 0 0.92 0.14 0 0.94 0.14 0 
0.96 0.14 0 0.98 0.14 0 1 0.14 0 
0 0.16 0 0.02 0.16 0 0.04 0.16 0 
0.06 0.16 0 0.08 0.16 0 0.1 0.16 0 
0.12 0.16 0 0.14 0.16 0 0.16 0.16 0 
0.18 0.16 0 0.2 0.16 0 0.22 0.16 0 
0.24 0.16 0 0.26 0.16 0 0.28 0.16 0 
0.3 0.16 0 0.32 0.16 0 0.34 0.16 0 
0.36 0.16 0 0.38 0.16 0 0.4 0.16 0 
0.42 0.16 0 0.44 0.16 0 0.46 0.16 0 
0.48 0.16 0 0.5 0.16 0 0.52 0.16 0 
0.54 0.16 0 0.56 0.16 0 0.58 0.16 0 
0.6 0.16 0 0.62 0.16 0 0.64 0.16 0 
0.66 0.16 0 0.68 0.16 0 0.7 0.16 0 
0.72 0.16 0 0.74 0.16 0 0.76 0.16 0 
0.78 0.16 0 0.8 0.16 0 0.82 0.16 0 
0.84 0.16 0 0.86 0.16 0 0.88 0.16 0 
0.9 0.16 0 0.92 0.16 0 0.94 0.16 0 
0.96 0.16 0 0.98 0.16 0 1 0.16 0 
0 0.18 0 0.02 0.18 0 0.04 0.18 0 
0.06 0.18 0 0.08 0.18 0 0.1 0.18 0 
0.12 0.18 0 0.14 0.18 0 0.16 0.18 0 
0.18 0.18 0 0.2 0.18 0 0.22 0.18 0 
0.24 0.18 0 0.26 0.18 0 0.28 0.18 0 
0.3 0.18 0 0.32 0.18 0 0.34 0.18 0 
0.36 0.18 0 0.38 0.18 0 0.4 0.18 0 
0.42 0.18 0 0.44 0.18 0 0.46 0.18 0 
0.48 0.18 0 0.5 0.18 0 0.52 0.18 0 
0.54 0.18 0 0.56 0.18 0 0.58 0.18 0 
0.6 0.18 0 0.62 0.18 0 0.64 0.18 0 
0.66 0.18 0 0.68 0.18 0 0.7 0.18 0 
0.72 0.18 0 0.74 0.18 0 0.76 0.18 0 
0.78 0.18 0 0.8 0.18 0 0.82 0.18 0 
0.84 0.18 0 0.86 0.18 0 0.88 0.18 0 
0.9 0.18 0 0.92 0.18 0 0.94 0.18 0 
0.96 0.18 0 0.98 0.18 0 1 0.18 0 
0 0.2 0 0.02 0.2 0 0.04 0.2 0 
0.06 0.2 0 0.08 0.2 0 0.1 0.2 0 
0.12 0.2 0 0.14 0.2 0 0.16 0.2 0 
0.18 0.2 0 0.2 0.2 0 0.22 0.2 0 
0.24 0.2 0 0.26 0.2 0 0.28 0.2 0 
0.3 0.2 0 0.32 0.2 0 0.34 0.2 0 
0.36 0.2 0 0.38 0.2 0 0.4 0.2 0 
0.42 0.2 0 0.44 0.2 0 0.46 0.2 0 
0.48 0.2 0 0.5 0.2 0 0.52 0.2 0 
0.54 0.2 0 0.56 0.2 0 0.58 0.2 0 
0.6 0.2 0 0.62 0.2 0 0.64 0.2 0 
0.66 0.2 0 0.68 0.2 0 0.7 0.2 0 
0.72 0.2 0 0.74 0.2 0 0.76 0.2 0 
0.78 0.2 0 0.8 0.2 0 0.82 0.2 0 
0.84 0.2 0 0.86 0.2 0 0.88 0.2 0 
0.9 0.2 0 0.92 0.2 0 0.94 0.2 0 
0.96 0.2 0 0.98 0.2 0 1 0.2 0 
0 0.22 0 0.02 0.22 0 0.04 0.22 0 
0.06 0.22 0 0.08 0.22 0 0.1 0.22 0 
0.12 0.22 0 0.14 0.22 0 0.16 0.22 0 
0.18 0.22 0 0.2 0.22 0 0.22 0.22 0 
0.24 0.22 0 0.26 0.22 0 0.28 0.22 0 
0.3 0.22 0 0.32 0.22 0 0.34 0.22 0 
0.36 0.22 0 0.38 0.22 0 0.4 0.22 0 
0.42 0.22 0 0.44 0.22 0 0.46 0.22 0 
0.48 0.22 0 0.5 0.22 0 0.52 0.22 0 
0.54 0.22 0 0.56 0.22 0 0.58 0.22 0 
0.6 0.22 0 0.62 0.22 0 0.64 0.22 0 
0.66 0.22 0 0.68 0.22 0 0.7 0.22 0 
0.72 0.22 0 0.74 0.22 0 0.76 0.22 0 
0.78 0.22 0 0.8 0.22 0 0.82 0.22 0 
0.84 0.22 0 0.86 0.22 0 0.88 0.22 0 
0.9 0.22 0 0.92 0.22 0 0.94 0.22 0 
0.96 0.22 0 0.98 0.22 0 1 0.22 0 
0 0.24 0 0.02 0.24 0 0.04 0.24 0 
0.06 0.24 0 0.08 0.24 0 0.1 0.24 0 
0.12 0.24 0 0.14 0.24 0 0.16 0.24 0 
0.18 0.24 0 0.2 0.24 0 0.22 0.24 0 
0.24 0.24 0 0.26 0.24 0 0.28 0.24 0 
0.3 0.24 0 0.32 0.24 0 0.34 0.24 0 
0.36 0.24 0 0.38 0.24 0 0.4 0.24 0 
0.42 0.24 0 0.44 0.24 0 0.46 0.24 0 
0.48 0.24 0 0.5 0.24 0 0.52 0.24 0 
0.54 0.24 0 0.56 0.24 0 0.58 0.24 0 
0.6 0.24 0 0.62 0.24 0 0.64 0.24 0 
0.66 0.24 0 0.68 0.24 0 0.7 0.24 0 
0.72 0.24 0 0.74 0.24 0 0.76 0.24 0 
0.78 0.24 0 0.8 0.24 0 0.82 0.24 0 
0.84 0.24 0 0.86 0.24 0 0.88 0.24 0 
0.9 0.24 0 0.92 0.24 0 0.94 0.24 0 
0.96 0.24 0 0.98 0.24 0 1 0.24 0 
0 0.26 0 0.02 0.26 0 0.04 0.26 0 
0.06 0.26 0 0.08 0.26 0 0.1 0.26 0 
0.12 0.26 0 0.14 0.26 0 0.16 0.26 0 
0.18 0.26 0 0.2 0.26 0 0.22 0.26 0 
0.24 0.26 0 0.26 0.26 0 0.28 0.26 0 
0.3 0.26 0 0.32 0.26 0 0.34 0.26 0 
0.36 0.26 0 0.38 0.26 0 0.4 0.26 0 
0.42 0.26 0 0.44 0.26 0 0.46 0.26 0 
0.48 0.26 0 0.5 0.26 0 0.52 0.26 0 
0.54 0.26 0 0.56 0.26 0 0.58 0.26 0 
0.6 0.26 0 0.62 0.26 0 0.64 0.26 0 
0.66 0.26 0 0.68 0.26 0 0.7 0.26 0 
0.72 0.26 0 0.74 0.26 0 0.76 0.26 0 
0.78 0.26 0 0.8 0.26 0 0.82 0.26 0 
0.84 0.26 0 0.86 0.26 0 0.88 0.26 0 
0.9 0.26 0 0.92 0.26 0 0.94 0.26 0 
0.96 0.26 0 0.98 0.26 0 1 0.26 0 
0 0.28 0 0.02 0.28 0 0.04 0.28 0 
0.06 0.28 0 0.08 0.28 0 0.1 0.28 0 
0.12 0.28 0 0.14 0.28 0 0.16 0.28 0 
0.18 0.28 0 0.2 0.28 0 0.22 0.28 0 
0.24 0.28 0 0.26 0.28 0 0.28 0.28 0 
0.3 0.28 0 0.32 0.28 0 0.34 0.28 0 
0.36 0.28 0 0.38 0.28 0 0.4 0.28 0 
0.42 0.28 0 0.44 0.28 0 0.46 0.28 0 
0.48 0.28 0 0.5 0.28 0 0.52 0.28 0 
0.54 0.28 0 0.56 0.28 0 0.58 0.28 0 
0.6 0.28 0 0.62 0.28 0 0.64 0.28 0 
0.66 0.28 0 0.68 0.28 0 0.7 0.28 0 
0.72 0.28 0 0.74 0.28 0 0.76 0.28 0 
0.78 0.28 0 0.8 0.28 0 0.82 0.28 0 
0.84 0.28 0 0.86 0.28 0 0.88 0.28 0 
0.9 0.28 0 0.92 0.28 0 0.94 0.28 0 
0.96 0.28 0 0.98 0.28 0 1 0.28 0 
0 0.3 0 0.02 0.3 0 0.04 0.3 0 
0.06 0.3 0 0.08 0.3 0 0.1 0.3 0 
0.12 0.3 0 0.14 0.3 0 0.16 0.3 0 
0.18 0.3 0 0.2 0.3 0 0.22 0.3 0 
0.24 0.3 0 0.26 0.3 0 0.28 0.3 0 
0.3 0.3 0 0.32 0.3 0 0.34 0.3 0 
0.36 0.3 0 0.38 0.3 0 0.4 0.3 0 
0.42 0.3 0 0.44 0.3 0 0.46 0.3 0 
0.48 0.3 0 0.5 0.3 0 0.52 0.3 0 
0.54 0.3 0 0.56 0.3 0 0.58 0.3 0 
0.6 0.3 0 0.62 0.3 0 0.64 0.3 0 
0.66 0.3 0 0.68 0.3 0 0.7 0.3 0 
0.72 0.3 0 0.74 0.3 0 0.76 0.3 0 
0.78 0.3 0 0.8 0.3 0 0.82 0.3 0 
0.84 0.3 0 0.86 0.3 0 0.88 0.3 0 
0.9 0.3 0 0.92 0.3 0 0.94 0.3 0 
0.96 0.3 0 0.98 0.3 0 1 0.3 0 
0 0.32 0 0.02 0.32 0 0.04 0.32 0 
0.06 0.32 0 0.08 0.32 0 0.1 0.32 0 
0.12 0.32 0 0.14 0.32 0 0.16 0.32 0 
0.18 0.32 0 0.2 0.32 0 0.22 0.32 0 
0.24 0.32 0 0.26 0.32 0 0.28 0.32 0 
0.3 0.32 0 0.32 0.32 0 0.34 0.32 0 
0.36 0.32 0 0.38 0.32 0 0.4 0.32 0 
0.42 0.32 0 0.44 0.32 0 0.46 0.32 0 
0.48 0.32 0 0.5 0.32 0 0.52 0.32 0 
0.54 0.32 0 0.56 0.32 0 0.58 0.32 0 
[...]
CELL_DATA 2500
FIELD FieldData 1
pressure 1 2500 double
0.0061866921689 0.0061206433319 0.0059281168176 0.0056497169752 0.0053278672005 0.0049971039699 0.0046828225431 0.0044025698508 0.0041679251157 
0.0039862713755 0.0038622375055 0.0037987535698 0.0037977415345 0.0038605068802 0.0039879107432 0.0041803956087 0.0044379233917 0.0047598700752 
0.0051449045436 0.0055908609738 0.0060946016813 0.0066518665409 0.0072571142668 0.0079033708999 0.0085821025523 0.0092831196913 0.0099941503961 
0.010701998747 0.011392738808 0.012051837008 0.012664582982 0.013216618965 0.013694533703 0.014086488222 0.014382838649 0.014576719328 
0.014664549691 0.014646432125 0.014526415792 0.014312612572 0.014017165423 0.013656084946 0.013248983633 0.012818743388 0.012391148829 
0.011994387831 0.011658288345 0.011412392004 0.011280786971 0.01126837958 0.0062533621969 0.0061843975923 0.0060193561952 0.0057897089207 
0.0055253353528 0.0052516599253 0.0049886887984 0.0047514013397 0.0045506641085 0.0043942061718 0.0042874562103 0.004234182764 0.0042369520066 
0.0042974419327 0.0044166468004 0.0045949936601 0.0048323862901 0.0051281894082 0.0054811618424 0.0058893441678 0.0063499094971 0.0068589943063 
0.0074115337046 0.0080011263883 0.0086199505122 0.0092587521192 0.009905955245 0.010549579827 0.011177050596 0.011775279629 0.012331081333 
0.012831656317 0.013265126597 0.013621095881 0.013891203692 0.014069639599 0.014153584136 0.014143546616 0.014043576869 0.013861337436 
0.013608034302 0.013298215708 0.012949456418 0.01258194394 0.012217964216 0.011881232316 0.011595872937 0.011384847605 0.011267322337 
0.011255962489 0.0064445957597 0.0063448763828 0.0061790526327 0.0059688835668 0.0057348559601 0.0054952677795 0.0052655589957 0.0050581546226 
0.0048826655551 0.0047462691641 0.0046541431988 0.0046098884776 0.0046159144588 0.004673768981 0.0047843900319 0.0049482624377 0.0051654769273 
0.0054357018382 0.005758083458 0.0061310953599 0.0065523622534 0.0070184866493 0.0075249033796 0.0080657790298 0.0086339676002 0.0092210362448 
0.0098158820448 0.010407535479 0.010984460481 0.011534637264 0.012045957678 0.012506681718 0.012905939947 0.013234257556 0.013484070158 
0.013650198537 0.013730249726 0.013724915052 0.013638141963 0.013477165299 0.013252394402 0.012977162677 0.012667353496 0.012340917144 
0.01201728416 0.011716659873 0.011459158 0.011263808817 0.01114766607 0.011126165653 0.0067270162021 0.0065752940355 0.0063858078606 
0.0061715919802 0.0059462343626 0.0057227270855 0.0055125928463 0.005325395055 0.0051686344256 0.0050479161907 0.0049672602562 0.0049294659101 
0.0049364707614 0.0049896523552 0.0050900327335 0.0052383702773 0.0054351488095 0.0056804873046 0.0059739961978 0.0063146068384 0.0067003997593 
0.0071284530627 0.0075947238748 0.0080939688359 0.0086197089542 0.0091642494672 0.0097168802002 0.0102674249 0.010805097565 0.011318602137 
0.01179651331 0.012227720006 0.012601914322 0.012910101294 0.013145099466 0.013301999055 0.013378544209 0.013375408653 0.01329633987 
0.013148156016 0.01294059091 0.012685993547 0.012398898142 0.012095486366 0.011792964421 0.01150887739 0.011260393836 0.011063651309 
0.01093337388 0.010883208781 0.0070623660346 0.0068449969574 0.0066154598815 0.0063807778044 0.0061494064143 0.0059298154006 0.0057295688508 
0.0055548757515 0.00541053344 0.0053001034176 0.0052261870682 0.0051907223629 0.0051952477126 0.0052410895568 0.0053294500865 0.0054613994005 
0.0056377954418 0.005859157229 0.006125512091 0.0064362343558 0.0067898902126 0.0071840990168 0.0076154163573 0.0080792432997 0.0085697703075 
0.0090799693652 0.0095994776207 0.010118671991 0.010627258952 0.011114364474 0.011568907804 0.011980041853 0.012337641548 0.012632814955 
0.012858406286 0.013009456029 0.013083582519 0.013081251439 0.013005905734 0.012863938149 0.012664500909 0.012419160304 0.012141416697 
0.01184612072 0.011548823667 0.011265106063 0.011009936932 0.010797132949 0.010639004268 0.010546207474 0.0074150120167 0.0071249520963 
0.0068462089588 0.0065816353378 0.0063352583021 0.0061111691383 0.0059129136636 0.0057433068001 0.0056045024292 0.0054981605565 0.0054256313074 
0.0053881235268 0.0053868319419 0.0054229992386 0.0054979067159 0.0056128074412 0.0057688217777 0.0059668081635 0.0062072160657 0.0064899277017 
0.0068140964653 0.0071779897432 0.0075788437125 0.0080127400521 0.0084745183556 0.0089577396142 0.009452361252 0.0099490670245 0.010437842805 
0.01090798744 0.011348483525 0.011748440414 0.012097590866 0.01238681561 0.012608663431 0.012757829529 0.012831553153 0.012829897195 
0.01275587868 0.012615429796 0.012417182889 0.012172088761 0.011892893598 0.011593513666 0.011288357157 0.010991647973 0.010716805002 
0.010475918866 0.010279329952 0.010135190806 0.0077550003658 0.0073907840484 0.007059378993 0.0067600513206 0.0064926888561 0.0062573141571 
0.0060538843388 0.0058823098429 0.0057425389988 0.0056346336222 0.0055588323922 0.005515607075 0.0055056968507 0.0055301024018 0.0055900366656 
0.0056868419389 0.0058218808261 0.0059964008296 0.0062113719185 0.0064673020261 0.0067640406361 0.0071005825068 0.0074748843113 0.0078837081077 
0.0083225064576 0.008785362821 0.0092625707883 0.009744889048 0.010222421229 0.01068444154 0.011119763473 0.011517189249 0.011866021931 
0.012156613721 0.012380916 0.012532990808 0.012609440727 0.012609715344 0.012536258977 0.012394475781 0.012192503897 0.011940808866 
0.011651625569 0.011338294798 0.011014552471 0.010693833102 0.010388640747 0.010110015591 0.0098670729667 0.0096665005444 0.0080584289928 
0.00762196193 0.0072372852272 0.0069003507029 0.0066074455678 0.0063552185829 0.0061407408155 0.0059615718903 0.0058157810939 0.0057019433582 
0.0056191466662 0.0055670128664 0.0055457057445 0.0055559042566 0.0055987373763 0.0056756856497 0.0057884496908 0.0059387820019 0.0061282837647 
0.0063581766357 0.0066290643096 0.0069406989526 0.0072917663273 0.0076797026622 0.0081005557246 0.0085489013858 0.0090154510048 0.0094908260607 
0.0099651324349 0.010427464373 0.010866271299 0.01126981675 0.011626711769 0.011926495424 0.012160225991 0.012321039375 0.012404627425 
0.012409589295 0.012337615349 0.012193475033 0.011984797282 0.011721653152 0.011415972402 0.011080845538 0.010729776519 0.010375954135 
0.010031598624 0.0097074107708 0.0094121010098 0.0091519080203 0.0083054583599 0.0077996051171 0.0073619239049 0.0069855981862 0.0066640407769 
0.0063912064989 0.0061617699045 0.0059711930416 0.0058157320741 0.005692444685 0.0055992222254 0.0055348232005 0.0054988727842 0.0054918121904 
0.0055148017624 0.0055695847443 0.0056583120775 0.0057833278224 0.0059469220244 0.0061510645417 0.0063971348948 0.0066856613238 0.0070160800645 
0.0073865255265 0.0077936623804 0.0082325708606 0.0086945316293 0.0091698308915 0.0096484988411 0.010119329436 0.010570244722 0.010988764431 
0.011362563955 0.011680093101 0.011931217815 0.012107838718 0.012204434721 0.012218479315 0.012150682685 0.012005024707 0.01178856246 
0.011511019222 0.011184187094 0.010821198532 0.010435738076 0.01004126946 0.0096503414475 0.0092740060071 0.0089213360933 0.0085989743621 
0.0084780116131 0.0079055398864 0.0074157206786 0.0069995489658 0.0066480391875 0.0063527536703 0.0061060947413 0.0059014460674 0.0057332559698 
0.0055971160795 0.0054898315184 0.0054094489281 0.0053552197724 0.0053275019021 0.0053276145267 0.0053576561084 0.0054202863329 0.0055184742553 
0.0056552210459 0.0058332692654 0.0060548098892 0.0063211963267 0.0066326742517 0.0069881378386 0.0073849247664 0.007818663335 0.0082814205512 
0.0087629637252 0.0092532058665 0.009740556554 0.010212280175 0.010654973765 0.011055149403 0.011399894502 0.011677571942 0.011878511686 
0.01199563786 0.012024972684 0.011965962573 0.011821583137 0.011598199071 0.011305180365 0.010954304638 0.010559002442 0.010133521878 
0.0096920955124 0.0092481823057 0.00881382864 0.008399148669 0.0080118740557 0.0085588932992 0.0079228113906 0.0073827522087 0.0069277329754 
0.0065464359493 0.0062280218373 0.0059626061084 0.0057415416791 0.0055576052741 0.0054051254842 0.0052800444827 0.0051798986144 0.0051037229439 
0.0050519009969 0.0050259787618 0.0050284493444 0.005062507311 0.0051317744426 0.0052400034433 0.0053907675737 0.0055871434938 0.0058313945245 
0.0061246637978 0.0064666901449 0.0068555619331 0.0072875247429 0.0077557157058 0.0082492284531 0.0087578608731 0.0092695974091 0.0097709524453 
0.010247449775 0.010684225796 0.011066732099 0.0113815004 0.011616920092 0.011763968368 0.011816827465 0.01177332494 0.011635142865 
0.011407760961 0.011100125704 0.010724069253 0.010293533614 0.0098236799426 0.0093299741753 0.0088273333327 0.0083293904677 0.0078478942946 
0.0073922116761 0.0085321478611 0.0078362477054 0.0072488730034 0.0067569233224 0.00634664144 0.0060047615858 0.0057191966486 0.0054794527218 
0.0052768733473 0.0051047592672 0.0049583795266 0.0048348909964 0.0047331934321 0.0046537460325 0.0045983583769 0.0045699556543 0.0045723150416 
0.0046097742554 0.0046869165815 0.0048082373597 0.0049777973847 0.0051988706916 0.0054735980613 0.0058026612734 0.0061849959393 0.0066175636908 
0.0070949395841 0.0076054313527 0.008138778527 0.0086825514269 0.0092224655236 0.0097428528276 0.010227279138 0.010659286823 0.011023228846 
0.011305144318 0.011493612178 0.011580510299 0.011561604986 0.01143690292 0.011210715451 0.010891412975 0.010490882324 0.010023737082 
0.0095063620571 0.0089558914196 0.008389219023 0.0078221171206 0.0072684999806 0.0067398219855 0.0083834319876 0.0076322233194 0.0070009503339 
0.0064742316793 0.0060358629625 0.0056702618133 0.0053633293205 0.0051029440472 0.0048792133077 0.0046845547131 0.0045136554859 0.0043633497869 
0.0042324472316 0.0041215320851 0.0040327378195 0.003969493938 0.0039362430048 0.0039381294099 0.00398066271 0.0040693587674 0.004209363355 
0.0044050660204 0.0046597160208 0.0049750554407 0.0053509875442 0.0057853017332 0.0062745498956 0.0068061280116 0.0073698606932 0.0079529758304 
0.0085403907354 0.0091151659731 0.0096591262711 0.010153637156 0.010580508786 0.010922979424 0.011166713083 0.011300731495 0.01131819296 
0.011216933063 0.010999697019 0.010674020847 0.010251756839 0.0097482820389 0.009181468896 0.0085705256089 0.007934821974 0.0072928010866 
0.0066610410805 0.0060534845641 0.0080997865555 0.0072980522109 0.0066263483077 0.0060670338963 0.0056015836561 0.0052122660333 0.0048831366758 
0.0046005810569 0.0043535612364 0.0041336688516 0.0039350545549 0.0037542829653 0.0035901430566 0.0034434273854 0.0033166830453 0.0032139340909 
0.0031403764392 0.0031020468677 0.0031054670042 0.0031572634749 0.0032637673324 0.0034305993268 0.0036622512146 0.0039616764475 0.0043299072287 
0.0047657189516 0.0052681278179 0.005823731289 0.0064226337741 0.0070518454667 0.0076955419117 0.0083354830865 0.0089516197647 0.0095228908763 
0.010028192252 0.010447473985 0.01076290083 0.010959989494 0.011028621925 0.010963829233 0.010766250051 0.010442192378 0.010003268195 
0.0094656206119 0.0088488152794 0.0081745104125 0.0074650420346 0.0067420566014 0.0060252928483 0.0053315683372 0.0076692063694 0.0068217807093 
0.0061131713683 0.0055236159143 0.0050323989285 0.0046197459667 0.0042679427953 0.0039619328063 0.0036895743538 0.0034416829024 0.0032119417942 
0.0029967340064 0.0027949241498 0.0026076057742 0.0024378216544 0.0022902614289 0.0021709387434 0.0020868472466 0.0020455930323 0.0020550016895 
0.0021227004884 0.002255679717 0.0024598405038 0.0027395396924 0.003097147391 0.0035326462638 0.0040477177256 0.004628810848 0.0052664881574 
0.0059477112076 0.0066560389494 0.0073719710425 0.0080735087576 0.0087369511071 0.0093379161922 0.009852552374 0.010258876494 0.0105381486 
0.010676168859 0.010664367896 0.010500562316 0.010189266972 0.0097414961257 0.009174043319 0.0085082962002 0.0077687043302 0.0069810607209 
0.0061707703725 0.0053612583124 0.0045726235573 0.007080583265 0.0061925114486 0.0054508134735 0.0048337081889 0.0043183499637 0.0038829633021 
0.0035081032197 0.0031773207473 0.002877439044 0.0025985851811 0.0023340737988 0.0020802018991 0.0018359905117 0.0016028955022 0.0013845006722 
0.0011861990075 0.0010148617479 0.00087849047604 0.00078584602689 0.0007460491783 0.00076815080068 0.0008606725678 0.0010311223641 0.0012854907272 
0.0016277341494 0.0020592419121 0.0025843190448 0.0031906222158 0.0038691706375 0.0046071142266 0.0053876226284 0.0061900728833 0.0069905242444 
0.0077624837081 0.0084779592677 0.0091087764054 0.0096281024438 0.010012087647 0.010241496883 0.010303177931 0.010191199946 0.0099075057085 
0.009461958686 0.0088717300188 0.0081600537067 0.0073544653027 0.0064847109823 0.0055805518771 0.0046696831963 0.0037759428929 0.0063240538986 
0.0054008150884 0.0046302201235 0.003988508527 0.0034507460223 0.0029932158146 0.0025948232366 0.0022378249248 0.0019081145682 0.0015952322323 
0.001292208625 0.00099531511354 0.00070376513842 0.00041939582804 0.00014634466526 -0.0001092752842 -0.00033970609333 -0.00053589028776 -0.00068783995323 
-0.00078503738149 -0.00081687228608 -0.0007731172616 -0.00064443964813 -0.00042294467654 -0.0001027456962 0.00031941820289 0.00084850719795 0.0014779576355 
0.0021976061106 0.0029953255481 0.0038542921501 0.0047530272456 0.0056657664965 0.0065631638003 0.0074133464051 0.0081833166246 0.0088406597842 
0.0093554731193 0.009702381683 0.0098624624114 0.0098248665087 0.0095879244779 0.0091595468854 0.0085568014622 0.0078046484172 0.0069339346426 
0.005978858615 0.0049741933027 0.003952573682 0.0029421149372 0.0053913729822 0.0044388788883 0.0036438116304 0.0029804981614 0.0024220235268 
0.0019428601695 0.0015203994201 0.0011357281392 0.0007739123974 0.00042397749565 7.8711539796e-05 -0.00026562431157 -0.00060962491208 -0.00095107776046 
-0.0012852937724 -0.0016054319263 -0.0019028253647 -0.0021673198388 -0.0023876358191 -0.0025517646145 -0.0026474066322 -0.0026624566386 -0.0025855360944 
-0.0024065644148 -0.0021173430944 -0.0017120714239 -0.0011874954847 -0.0005393927595 0.00021913433339 0.0010774692856 0.0020193281717 0.0030227748065 
0.0040604721952 0.0051002837127 0.0061062854117 0.0070402164441 0.0078633518848 0.0085387275651 0.0090335825459 0.0093218189174 0.0093862228786 
0.0092201610646 0.0088284778031 0.0082273838214 0.0074432454051 0.0065103398251 0.0054678065936 0.00435615367 0.0032137360693 0.0020735945181 
0.0042760598388 0.0033004658905 0.002485409373 0.0018034725096 0.0012259510219 0.0007256868466 0.0002787063641 -0.00013496442726 -0.00053101843632 
-0.00092091155774 -0.0013120911788 -0.0017083154031 -0.0021100031807 -0.0025145826097 -0.0029168253034 -0.0033091680972 -0.0036820308184 -0.0040241422921 
-0.0043228881534 -0.0045646941189 -0.0047354569497 -0.0048210325249 -0.0048077860054 -0.0046832025424 -0.0044365475157 -0.0040595522666 -0.0035471010433 
-0.0028889535239 -0.0020969483998 -0.0011799767669 -0.00015326479142 0.00096130619758 0.0021352300839 0.003333802385 0.0045170237716 0.0056410413985 
0.006660145946 0.0075292802365 0.0082069358643 0.0086582241307 0.0088578202682 0.0087924155678 0.0084622946723 0.0078817068271 0.0070778305985 
0.006088330832 0.0049577379185 0.0037330852414 0.0024593599077 0.0011753153019 0.0029734053886 0.0019809375871 0.0011503768991 0.00045281512803 
-0.00014201026851 -0.00066270298575 -0.0011344699446 -0.001578262865 -0.0020104895527 -0.0024430720709 -0.0028836982274 -0.0033361630747 -0.0038007355489 
-0.0042745158478 -0.0047517709126 -0.0052242490749 -0.0056814830053 -0.0061110948004 -0.0064991198896 -0.0068303675308 -0.0070888348547 -0.0072581890735 
-0.0073223290267 -0.0072660338297 -0.0070757063848 -0.0067402356055 -0.006252084133 -0.0055946225867 -0.0047777022964 -0.0038073234099 -0.0026968817623 
-0.0014675140448 -0.00014830265533 0.0012239048699 0.0026052083516 0.0039460065852 0.0051930510509 0.0062921981992 0.0071917635365 0.0078462646359 
0.0082202147355 0.0082915179145 0.0080539543136 0.0075182653999 0.0067114807912 0.005674369986 0.0044572166197 0.0031144234237 0.001698668369 
0.00025537141373 0.0014805349353 0.00047741783358 -0.00036414200224 -0.0010742567123 -0.001684511379 -0.0022247777934 -0.0027213735903 -0.0031961512823 
-0.0036661933112 -0.0041438771992 -0.0046371444682 -0.0051498602363 -0.0056821930259 -0.0062309774128 -0.0067900451474 -0.0073505252601 -0.0079011232167 
-0.0084283954661 -0.0089170397338 -0.0093502230476 -0.0097099689598 -0.0099776233976 -0.010134415647 -0.010162127826 -0.010043883352 -0.0097650615806 
-0.009314325523 -0.0086735943592 -0.007844208 -0.006829376697 -0.0056399986603 -0.0042956401418 -0.0028251602207 -0.0012668851111 0.00033181089156 
0.0019156626662 0.0034235261609 0.0047912984561 0.0059556970829 0.0068587083797 0.0074523459335 0.0077031904821 0.0075960548259 0.0071360846799 
0.006348717851 0.0052772006182 0.0039777704658 0.0025130642137 0.00094466161043 -0.00067420396754 -0.00020343758054 -0.0012110395219 -0.0020591083158 
-0.0027786611362 -0.0034023566912 -0.003961143586 -0.0044823150314 -0.004988540589 -0.0054975399405 -0.0060221494981 -0.0065706025464 -0.0071469003851 
-0.0077511983804 -0.0083801662149 -0.0090273062065 -0.00968323009 -0.01033590578 -0.010970893174 -0.01157159272 -0.01211953234 -0.012594718069 
-0.012976072242 -0.013241980568 -0.013370966024 -0.013342502049 -0.013137970009 -0.012741766292 -0.012135718687 -0.011309406001 -0.01026289766 
-0.0090034899515 -0.0075481028408 -0.0059243304509 -0.00417104131 -0.0023383562139 -0.00048680929288 0.0013144909768 0.0029908309948 0.0044660167621 
0.0056675169826 0.0065322733375 0.0070125863081 0.0070812685446 0.0067351385624 0.0059959854479 0.0049084253862 0.0035345826864 0.001946155809 
0.0002149805871 -0.0015965340675 -0.0020772878992 -0.0030834233374 -0.0039336579881 -0.0046595771896 -0.0052946242388 -0.0058706028824 -0.0064156328561 
-0.006953122527 -0.0075014144709 -0.0080738429479 -0.0086790130827 -0.0093211716197 -0.010000588328 -0.01071390416 -0.011454428347 -0.012212384661 
-0.012975119513 -0.013727293061 -0.01445107952 -0.015126405145 -0.015731252687 -0.016242060468 -0.016634242512 -0.016882852702 -0.016963407597 
-0.016852859461 -0.016530633283 -0.015979328107 -0.015175115974 -0.014113741475 -0.012797673135 -0.011239939687 -0.0094656109763 -0.0075128846752 
-0.005433566969 -0.0032926933325 -0.001167026526 0.00085779522271 0.0026915893198 0.0042453940122 0.0054383662543 0.006205191451 0.0065030552401 
0.0063169812524 0.0056622941315 0.0045832303916 0.003147323564 0.0014360332977 -0.00046707983865 -0.0024888384228 -0.0041377007261 -0.005136884426 
-0.0059852630828 -0.0067145863166 -0.0073587443144 -0.007950152933 -0.008517616616 -0.0090852348116 -0.0096720035165 -0.010291844069 -0.01095386246 
-0.01166270387 -0.012418917216 -0.013219282247 -0.01405707894 -0.014922298419 -0.015801808315 -0.016679494837 -0.017536409416 -0.018350950677 
-0.019099113777 -0.019754839573 -0.020290495746 -0.020677520805 -0.020887259952 -0.020892022392 -0.020666412354 -0.02018913096 -0.019429516847 
-0.018374113826 -0.017019335944 -0.015373001038 -0.013456232587 -0.011305089784 -0.0089716595003 -0.0065242922307 -0.0040466314012 -0.0016350950747 
0.00060545427076 0.0025679442027 0.004151035677 0.005268180612 0.005856736133 0.0058856585984 0.0053600871519 0.0043212961394 0.0028411559865 
0.0010113273293 -0.0010713785943 -0.0033211874622 -0.0063794242836 -0.0073669258565 -0.0082099059064 -0.0089398044374 -0.0095905861088 -0.010195036899 
-0.010782534871 -0.011377872416 -0.01200078698 -0.012665933512 -0.013383100366 -0.014157529962 -0.014990254324 -0.015878393203 -0.016815390821 
-0.017791188194 -0.018792343151 -0.019802120498 -0.020800581156 -0.021764702855 -0.022668567242 -0.023483649607 -0.024179248241 -0.024723090806 
-0.025082155813 -0.025223752214 -0.025116927416 -0.024734399882 -0.024045164585 -0.023020221755 -0.021649027585 -0.019932898811 -0.017887499387 
-0.015545073899 -0.012956257945 -0.010191091439 -0.0073387959579 -0.0045058513929 -0.0018119458275 0.0006164798517 0.0026550726795 0.0041923046911 