# vtk DataFile Version 4.1
vtk output
ASCII
DATASET STRUCTURED_GRID
DIMENSIONS 51 51 1
POINTS 2601 float
0 0 0 0.02 0 0 0.04 0 0 
0.06 0 0 0.08 0 0 0.1 0 0 
0.12 0 0 0.14 0 0 0.16 0 0 
0.18 0 0 0.2 0 0 0.22 0 0 
0.24 0 0 0.26 0 0 0.28 0 0 
0.3 0 0 0.32 0 0 0.34 0 0 
0.36 0 0 0.38 0 0 0.4 0 0 
0.42 0 0 0.44 0 0 0.46 0 0 
0.48 0 0 0.5 0 0 0.52 0 0 
0.54 0 0 0.56 0 0 0.58 0 0 
0.6 0 0 0.62 0 0 0.64 0 0 
0.66 0 0 0.68 0 0 0.7 0 0 
0.72 0 0 0.74 0 0 0.76 0 0 
0.78 0 0 0.8 0 0 0.82 0 0 
0.84 0 0 0.86 0 0 0.88 0 0 
0.9 0 0 0.92 0 0 0.94 0 0 
0.96 0 0 0.98 0 0 1 0 0 
0 0.02 0 0.02 0.02 0 0.04 0.02 0 
0.06 0.02 0 0.08 0.02 0 0.1 0.02 0 
0.12 0.02 0 0.14 0.02 0 0.16 0.02 0 
0.18 0.02 0 0.2 0.02 0 0.22 0.02 0 
0.24 0.02 0 0.26 0.02 0 0.28 0.02 0 
0.3 0.02 0 0.32 0.02 0 0.34 0.02 0 
0.36 0.02 0 0.38 0.02 0 0.4 0.02 0 
0.42 0.02 0 0.44 0.02 0 0.46 0.02 0 
0.48 0.02 0 0.5 0.02 0 0.52 0.02 0 
0.54 0.02 0 0.56 0.02 0 0.58 0.02 0 
0.6 0.02 0 0.62 0.02 0 0.64 0.02 0 
0.66 0.02 0 0.68 0.02 0 0.7 0.02 0 
0.72 0.02 0 0.74 0.02 0 0.76 0.02 0 
0.78 0.02 0 0.8 0.02 0 0.82 0.02 0 
0.84 0.02 0 0.86 0.02 0 0.88 0.02 0 
0.9 0.02 0 0.92 0.02 0 0.94 0.02 0 
0.96 0.02 0 0.98 0.02 0 1 0.02 0 
0 0.04 0 0.02 0.04 0 0.04 0.04 0 
0.06 0.04 0 0.08 0.04 0 0.1 0.04 0 
0.12 0.04 0 0.14 0.04 0 0.16 0.04 0 
0.18 0.04 0 0.2 0.04 0 0.22 0.04 0 
0.24 0.04 0 0.26 0.04 0 0.28 0.04 0 
0.3 0.04 0 0.32 0.04 0 0.34 0.04 0 
0.36 0.04 0 0.38 0.04 0 0.4 0.04 0 
0.42 0.04 0 0.44 0.04 0 0.46 0.04 0 
0.48 0.04 0 0.5 0.04 0 0.52 0.04 0 
0.54 0.04 0 0.56 0.04 0 0.58 0.04 0 
0.6 0.04 0 0.62 0.04 0 0.64 0.04 0 
0.66 0.04 0 0.68 0.04 0 0.7 0.04 0 
0.72 0.04 0 0.74 0.04 0 0.76 0.04 0 
0.78 0.04 0 0.8 0.04 0 0.82 0.04 0 
0.84 0.04 0 0.86 0.04 0 0.88 0.04 0 
0.9 0.04 0 0.92 0.04 0 0.94 0.04 0 
0.96 0.04 0 0.98 0.04 0 1 0.04 0 
0 0.06 0 0.02 0.06 0 0.04 0.06 0 
0.06 0.06 0 0.08 0.06 0 0.1 0.06 0 
0.12 0.06 0 0.14 0.06 0 0.16 0.06 0 
0.18 0.06 0 0.2 0.06 0 0.22 0.06 0 
0.24 0.06 0 0.26 0.06 0 0.28 0.06 0 
0.3 0.06 0 0.32 0.06 0 0.34 0.06 0 
0.36 0.06 0 0.38 0.06 0 0.4 0.06 0 
0.42 0.06 0 0.44 0.06 0 0.46 0.06 0 
0.48 0.06 0 0.5 0.06 0 0.52 0.06 0 
0.54 0.06 0 0.56 0.06 0 0.58 0.06 0 
0.6 0.06 0 0.62 0.06 0 0.64 0.06 0 
0.66 0.06 0 0.68 0.06 0 0.7 0.06 0 
0.72 0.06 0 0.74 0.06 0 0.76 0.06 0 
0.78 0.06 0 0.8 0.06 0 0.82 0.06 0 
0.84 0.06 0 0.86 0.06 0 0.88 0.06 0 
0.9 0.06 0 0.92 0.06 0 0.94 0.06 0 
0.96 0.06 0 0.98 0.06 0 1 0.06 0 
0 0.08 0 0.02 0.08 0 0.04 0.08 0 
0.06 0.08 0 0.08 0.08 0 0.1 0.08 0 
0.12 0.08 0 0.14 0.08 0 0.16 0.08 0 
0.18 0.08 0 0.2 0.08 0 0.22 0.08 0 
0.24 0.08 0 0.26 0.08 0 0.28 0.08 0 
0.3 0.08 0 0.32 0.08 0 0.34 0.08 0 
0.36 0.08 0 0.38 0.08 0 0.4 0.08 0 
0.42 0.08 0 0.44 0.08 0 0.46 0.08 0 
0.48 0.08 0 0.5 0.08 0 0.52 0.08 0 
0.54 0.08 0 0.56 0.08 0 0.58 0.08 0 
0.6 0.08 0 0.62 0.08 0 0.64 0.08 0 
0.66 0.08 0 0.68 0.08 0 0.7 0.08 0 
0.72 0.08 0 0.74 0.08 0 0.76 0.08 0 
0.78 0.08 0 0.8 0.08 0 0.82 0.08 0 
0.84 0.08 0 0.86 0.08 0 0.88 0.08 0 
0.9 0.08 0 0.92 0.08 0 0.94 0.08 0 
0.96 0.08 0 0.98 0.08 0 1 0.08 0 
0 0.1 0 0.02 0.1 0 0.04 0.1 0 
0.06 0.1 0 0.08 0.1 0 0.1 0.1 0 
0.12 0.1 0 0.14 0.1 0 0.16 0.1 0 
0.18 0.1 0 0.2 0.1 0 0.22 0.1 0 
0.24 0.1 0 0.26 0.1 0 0.28 0.1 0 
0.3 0.1 0 0.32 0.1 0 0.34 0.1 0 
0.36 0.1 0 0.38 0.1 0 0.4 0.1 0 
0.42 0.1 0 0.44 0.1 0 0.46 0.1 0 
0.48 0.1 0 0.5 0.1 0 0.52 0.1 0 
0.54 0.1 0 0.56 0.1 0 0.58 0.1 0 
0.6 0.1 0 0.62 0.1 0 0.64 0.1 0 
0.66 0.1 0 0.68 0.1 0 0.7 0.1 0 
0.72 0.1 0 0.74 0.1 0 0.76 0.1 0 
0.78 0.1 0 0.8 0.1 0 0.82 0.1 0 
0.84 0.1 0 0.86 0.1 0 0.88 0.1 0 
0.9 0.1 0 0.92 0.1 0 0.94 0.1 0 
0.96 0.1 0 0.98 0.1 0 1 0.1 0 
0 0.12 0 0.02 0.12 0 0.04 0.12 0 
0.06 0.12 0 0.08 0.12 0 0.1 0.12 0 
0.12 0.12 0 0.14 0.12 0 0.16 0.12 0 
0.18 0.12 0 0.2 0.12 0 0.22 0.12 0 
0.24 0.12 0 0.26 0.12 0 0.28 0.12 0 
0.3 0.12 0 0.32 0.12 0 0.34 0.12 0 
0.36 0.12 0 0.38 0.12 0 0.4 0.12 0 
0.42 0.12 0 0.44 0.12 0 0.46 0.12 0 
0.48 0.12 0 0.5 0.12 0 0.52 0.12 0 
0.54 0.12 0 0.56 0.12 0 0.58 0.12 0 
0.6 0.12 0 0.62 0.12 0 0.64 0.12 0 
0.66 0.12 0 0.68 0.12 0 0.7 0.12 0 
0.72 0.12 0 0.74 0.12 0 0.76 0.12 0 
0.78 0.12 0 0.8 0.12 0 0.82 0.12 0 
0.84 0.12 0 0.86 0.12 0 0.88 0.12 0 
0.9 0.12 0 0.92 0.12 0 0.94 0.12 0 
0.96 0.12 0 0.98 0.12 0 1 0.12 0 
0 0.14 0 0.02 0.14 0 0.04 0.14 0 
0.06 0.14 0 0.08 0.14 0 0.1 0.14 0 
0.12 0.14 0 0.14 0.14 0 0.16 0.14 0 
0.18 0.14 0 0.2 0.14 0 0.22 0.14 0 
0.24 0.14 0 0.26 0.14 0 0.28 0.14 0 
0.3 0.14 0 0.32 0.14 0 0.34 0.14 0 
0.36 0.14 0 0.38 0.14 0 0.4 0.14 0 
0.42 0.14 0 0.44 0.14 0 0.46 0.14 0 
0.48 0.14 0 0.5 0.14 0 0.52 0.14 0 
0.54 0.14 0 0.56 0.14 0 0.58 0.14 0 
0.6 0.14 0 0.62 0.14 0 0.64 0.14 0 
0.66 0.14 0 0.68 0.14 0 0.7 0.14 0 
0.72 0.14 0 0.74 0.14 0 0.76 0.14 0 
0.78 0.14 0 0.8 0.14 0 0.82 0.14 0 
0.84 0.14 0 0.86 0.14 0 0.88 0.14 0 
0.9 0.14 0 0.92 0.14 0 0.94 0.14 0 
0.96 0.14 0 0.98 0.14 0 1 0.14 0 
0 0.16 0 0.02 0.16 0 0.04 0.16 0 
0.06 0.16 0 0.08 0.16 0 0.1 0.16 0 
0.12 0.16 0 0.14 0.16 0 0.16 0.16 0 
0.18 0.16 0 0.2 0.16 0 0.22 0.16 0 
0.24 0.16 0 0.26 0.16 0 0.28 0.16 0 
0.3 0.16 0 0.32 0.16 0 0.34 0.16 0 
0.36 0.16 0 0.38 0.16 0 0.4 0.16 0 
0.42 0.16 0 0.44 0.16 0 0.46 0.16 0 
0.48 0.16 0 0.5 0.16 0 0.52 0.16 0 
0.54 0.16 0 0.56 0.16 0 0.58 0.16 0 
0.6 0.16 0 0.62 0.16 0 0.64 0.16 0 
0.66 0.16 0 0.68 0.16 0 0.7 0.16 0 
0.72 0.16 0 0.74 0.16 0 0.76 0.16 0 
0.78 0.16 0 0.8 0.16 0 0.82 0.16 0 
0.84 0.16 0 0.86 0.16 0 0.88 0.16 0 
0.9 0.16 0 0.92 0.16 0 0.94 0.16 0 
0.96 0.16 0 0.98 0.16 0 1 0.16 0 
0 0.18 0 0.02 0.18 0 0.04 0.18 0 
0.06 0.18 0 0.08 0.18 0 0.1 0.18 0 
0.12 0.18 0 0.14 0.18 0 0.16 0.18 0 
0.18 0.18 0 0.2 0.18 0 0.22 0.18 0 
0.24 0.18 0 0.26 0.18 0 0.28 0.18 0 
0.3 0.18 0 0.32 0.18 0 0.34 0.18 0 
0.36 0.18 0 0.38 0.18 0 0.4 0.18 0 
0.42 0.18 0 0.44 0.18 0 0.46 0.18 0 
0.48 0.18 0 0.5 0.18 0 0.52 0.18 0 
0.54 0.18 0 0.56 0.18 0 0.58 0.18 0 
0.6 0.18 0 0.62 0.18 0 0.64 0.18 0 
0.66 0.18 0 0.68 0.18 0 0.7 0.18 0 
0.72 0.18 0 0.74 0.18 0 0.76 0.18 0 
0.78 0.18 0 0.8 0.18 0 0.82 0.18 0 
0.84 0.18 0 0.86 0.18 0 0.88 0.18 0 
0.9 0.18 0 0.92 0.18 0 0.94 0.18 0 
0.96 0.18 0 0.98 0.18 0 1 0.18 0 
0 0.2 0 0.02 0.2 0 0.04 0.2 0 
0.06 0.2 0 0.08 0.2 0 0.1 0.2 0 
0.12 0.2 0 0.14 0.2 0 0.16 0.2 0 
0.18 0.2 0 0.2 0.2 0 0.22 0.2 0 
0.24 0.2 0 0.26 0.2 0 0.28 0.2 0 
0.3 0.2 0 0.32 0.2 0 0.34 0.2 0 
0.36 0.2 0 0.38 0.2 0 0.4 0.2 0 
0.42 0.2 0 0.44 0.2 0 0.46 0.2 0 
0.48 0.2 0 0.5 0.2 0 0.52 0.2 0 
0.54 0.2 0 0.56 0.2 0 0.58 0.2 0 
0.6 0.2 0 0.62 0.2 0 0.64 0.2 0 
0.66 0.2 0 0.68 0.2 0 0.7 0.2 0 
0.72 0.2 0 0.74 0.2 0 0.76 0.2 0 
0.78 0.2 0 0.8 0.2 0 0.82 0.2 0 
0.84 0.2 0 0.86 0.2 0 0.88 0.2 0 
0.9 0.2 0 0.92 0.2 0 0.94 0.2 0 
0.96 0.2 0 0.98 0.2 0 1 0.2 0 
0 0.22 0 0.02 0.22 0 0.04 0.22 0 
0.06 0.22 0 0.08 0.22 0 0.1 0.22 0 
0.12 0.22 0 0.14 0.22 0 0.16 0.22 0 
0.18 0.22 0 0.2 0.22 0 0.22 0.22 0 
0.24 0.22 0 0.26 0.22 0 0.28 0.22 0 
0.3 0.22 0 0.32 0.22 0 0.34 0.22 0 
0.36 0.22 0 0.38 0.22 0 0.4 0.22 0 
0.42 0.22 0 0.44 0.22 0 0.46 0.22 0 
0.48 0.22 0 0.5 0.22 0 0.52 0.22 0 
0.54 0.22 0 0.56 0.22 0 0.58 0.22 0 
0.6 0.22 0 0.62 0.22 0 0.64 0.22 0 
0.66 0.22 0 0.68 0.22 0 0.7 0.22 0 
0.72 0.22 0 0.74 0.22 0 0.76 0.22 0 
0.78 0.22 0 0.8 0.22 0 0.82 0.22 0 
0.84 0.22 0 0.86 0.22 0 0.88 0.22 0 
0.9 0.22 0 0.92 0.22 0 0.94 0.22 0 
0.96 0.22 0 0.98 0.22 0 1 0.22 0 
0 0.24 0 0.02 0.24 0 0.04 0.24 0 
0.06 0.24 0 0.08 0.24 0 0.1 0.24 0 
0.12 0.24 0 0.14 0.24 0 0.16 0.24 0 
0.18 0.24 0 0.2 0.24 0 0.22 0.24 0 
0.24 0.24 0 0.26 0.24 0 0.28 0.24 0 
0.3 0.24 0 0.32 0.24 0 0.34 0.24 0 
0.36 0.24 0 0.38 0.24 0 0.4 0.24 0 
0.42 0.24 0 0.44 0.24 0 0.46 0.24 0 
0.48 0.24 0 0.5 0.24 0 0.52 0.24 0 
0.54 0.24 0 0.56 0.24 0 0.58 0.24 0 
0.6 0.24 0 0.62 0.24 0 0.64 0.24 0 
0.66 0.24 0 0.68 0.24 0 0.7 0.24 0 
0.72 0.24 0 0.74 0.24 0 0.76 0.24 0 
0.78 0.24 0 0.8 0.24 0 0.82 0.24 0 
0.84 0.24 0 0.86 0.24 0 0.88 0.24 0 
0.9 0.24 0 0.92 0.24 0 0.94 0.24 0 
0.96 0.24 0 0.98 0.24 0 1 0.24 0 
0 0.26 0 0.02 0.26 0 0.04 0.26 0 
0.06 0.26 0 0.08 0.26 0 0.1 0.26 0 
0.12 0.26 0 0.14 0.26 0 0.16 0.26 0 
0.18 0.26 0 0.2 0.26 0 0.22 0.26 0 
0.24 0.26 0 0.26 0.26 0 0.28 0.26 0 
0.3 0.26 0 0.32 0.26 0 0.34 0.26 0 
0.36 0.26 0 0.38 0.26 0 0.4 0.26 0 
0.42 0.26 0 0.44 0.26 0 0.46 0.26 0 
0.48 0.26 0 0.5 0.26 0 0.52 0.26 0 
0.54 0.26 0 0.56 0.26 0 0.58 0.26 0 
0.6 0.26 0 0.62 0.26 0 0.64 0.26 0 
0.66 0.26 0 0.68 0.26 0 0.7 0.26 0 
0.72 0.26 0 0.74 0.26 0 0.76 0.26 0 
0.78 0.26 0 0.8 0.26 0 0.82 0.26 0 
0.84 0.26 0 0.86 0.26 0 0.88 0.26 0 
0.9 0.26 0 0.92 0.26 0 0.94 0.26 0 
0.96 0.26 0 0.98 0.26 0 1 0.26 0 
0 0.28 0 0.02 0.28 0 0.04 0.28 0 
0.06 0.28 0 0.08 0.28 0 0.1 0.28 0 
0.12 0.28 0 0.14 0.28 0 0.16 0.28 0 
0.18 0.28 0 0.2 0.28 0 0.22 0.28 0 
0.24 0.28 0 0.26 0.28 0 0.28 0.28 0 
0.3 0.28 0 0.32 0.28 0 0.34 0.28 0 
0.36 0.28 0 0.38 0.28 0 0.4 0.28 0 
0.42 0.28 0 0.44 0.28 0 0.46 0.28 0 
0.48 0.28 0 0.5 0.28 0 0.52 0.28 0 
0.54 0.28 0 0.56 0.28 0 0.58 0.28 0 
0.6 0.28 0 0.62 0.28 0 0.64 0.28 0 
0.66 0.28 0 0.68 0.28 0 0.7 0.28 0 
0.72 0.28 0 0.74 0.28 0 0.76 0.28 0 
0.78 0.28 0 0.8 0.28 0 0.82 0.28 0 
0.84 0.28 0 0.86 0.28 0 0.88 0.28 0 
0.9 0.28 0 0.92 0.28 0 0.94 0.28 0 
0.96 0.28 0 0.98 0.28 0 1 0.28 0 
0 0.3 0 0.02 0.3 0 0.04 0.3 0 
0.06 0.3 0 0.08 0.3 0 0.1 0.3 0 
0.12 0.3 0 0.14 0.3 0 0.16 0.3 0 
0.18 0.3 0 0.2 0.3 0 0.22 0.3 0 
0.24 0.3 0 0.26 0.3 0 0.28 0.3 0 
0.3 0.3 0 0.32 0.3 0 0.34 0.3 0 
0.36 0.3 0 0.38 0.3 0 0.4 0.3 0 
0.42 0.3 0 0.44 0.3 0 0.46 0.3 0 
0.48 0.3 0 0.5 0.3 0 0.52 0.3 0 
0.54 0.3 0 0.56 0.3 0 0.58 0.3 0 
0.6 0.3 0 0.62 0.3 0 0.64 0.3 0 
0.66 0.3 0 0.68 0.3 0 0.7 0.3 0 
0.72 0.3 0 0.74 0.3 0 0.76 0.3 0 
0.78 0.3 0 0.8 0.3 0 0.82 0.3 0 
0.84 0.3 0 0.86 0.3 0 0.88 0.3 0 
0.9 0.3 0 0.92 0.3 0 0.94 0.3 0 
0.96 0.3 0 0.98 0.3 0 1 0.3 0 
0 0.32 0 0.02 0.32 0 0.04 0.32 0 
0.06 0.32 0 0.08 0.32 0 0.1 0.32 0 
0.12 0.32 0 0.14 0.32 0 0.16 0.32 0 
0.18 0.32 0 0.2 0.32 0 0.22 0.32 0 
0.24 0.32 0 0.26 0.32 0 0.28 0.32 0 
0.3 0.32 0 0.32 0.32 0 0.34 0.32 0 
0.36 0.32 0 0.38 0.32 0 0.4 0.32 0 
0.42 0.32 0 0.44 0.32 0 0.46 0.32 0 
0.48 0.32 0 0.5 0.32 0 0.52 0.32 0 
0.54 0.32 0 0.56 0.32 0 0.58 0.32 0 
[...]
CELL_DATA 2500
FIELD FieldData 1
pressure 1 2500 double
0.0061875582533 0.0061207978286 0.0059274624976 0.005648571126 0.0053267247353 0.0049963782398 0.0046827001319 0.0044030040913 0.0041687171469 
0.0039871699337 0.0038630163891 0.0037992594477 0.0037979167582 0.0038603875401 0.0039875995601 0.004180018563 0.0044375879028 0.0047596402536 
0.0051447974637 0.0055908577811 0.006094664565 0.0066519548585 0.0072571961082 0.007903428508 0.0085821316878 0.0092831253583 0.00999414152 
0.01070198411 0.011392724838 0.012051827192 0.012664578234 0.013216618484 0.013694535932 0.014086491618 0.014382842118 0.014576722289 
0.014664551935 0.014646433662 0.014526416741 0.014312613102 0.014017165709 0.013656085126 0.013248983795 0.012818743578 0.012391149066 
0.011994388114 0.011658288661 0.011412392337 0.011280787304 0.011268379913 0.006253368848 0.0061839280439 0.0060187571367 0.0057893451939 
0.0055253884967 0.0052520960964 0.0049893308073 0.0047520387652 0.0045511365527 0.0043944346502 0.0042874373202 0.0042339698852 0.0042366335915 
0.0042971157029 0.0044163920454 0.0045948514386 0.0048323562461 0.0051282418566 0.0054812557373 0.0058894421243 0.0063499862446 0.0068590390377 
0.0074115479969 0.0080011193843 0.0086199333618 0.0092587340114 0.0099059415734 0.010549572391 0.011177048798 0.011775281694 0.012331085248 
0.012831660456 0.013265129995 0.013621098232 0.013891205131 0.014069640414 0.014153584588 0.01414354689 0.014043577085 0.013861337676 
0.013608034607 0.013298216077 0.012949456834 0.012581944381 0.012217964661 0.01188123275 0.011595873349 0.011384847991 0.0112673227 
0.011255962848 0.0064440694071 0.0063445315733 0.0061791450656 0.0059694160417 0.0057356078574 0.005495945889 0.00526594311 0.0050581702777 
0.0048823716941 0.0047457977565 0.0046536388085 0.0046094707446 0.00461565942 0.0046737003732 0.0047844807242 0.0049484498079 0.0051656885284 
0.0054358795345 0.0057581960923 0.0061311386439 0.0065523508037 0.0070184438181 0.0075248522873 0.0080657363546 0.0086339412489 0.0092210264484 
0.0098158844545 0.010407544377 0.010984470973 0.011534646157 0.012045963543 0.012506684501 0.012905940419 0.013234256774 0.013484069022 
0.013650197589 0.013730249179 0.013724914921 0.013638142179 0.013477165772 0.013252395026 0.012977163355 0.012667354161 0.012340917755 
0.012017284699 0.011716660341 0.011459158408 0.011263809182 0.011147666418 0.011126166002 0.0067266101238 0.006575426173 0.0063863860637 
0.0061723047106 0.0059467471366 0.0057228353537 0.0055122851856 0.005324815019 0.005167985631 0.0050473746081 0.0049669308674 0.004929379091 
0.0049365959688 0.004989916485 0.0050903432301 0.0052386425929 0.0054353293842 0.005680561958 0.0059739828182 0.0063145398669 0.0067003151767 
0.0071283785009 0.0075946743601 0.0080939471083 0.0086197092623 0.0091642624113 0.0097168970002 0.010267439646 0.010805107512 0.011318606956 
0.011796514092 0.012227718384 0.012601911846 0.012910099064 0.013145097998 0.013301998399 0.013378544192 0.013375409059 0.013296340525 
0.013148156794 0.012940591702 0.012685994279 0.012398898781 0.012095486902 0.011792964866 0.011508877767 0.011260394169 0.011063651619 
0.010933374193 0.010883209101 0.0070623276356 0.0068453410335 0.0066159208423 0.0063810567851 0.0061493416512 0.0059294256261 0.005729010153 
0.0055543450771 0.0054101780739 0.0052999810874 0.0052262774327 0.0051909596412 0.0051955489692 0.0052413742892 0.005329656794 0.0054614990492 
0.0056377946969 0.0058590883571 0.0061254157497 0.0064361446533 0.0067898273023 0.007184068717 0.0076154137409 0.0080792578455 0.0085697909559 
0.0090799879126 0.0095994900444 0.010118677823 0.010627259711 0.011114362294 0.011568904614 0.011980038997 0.012337639725 0.012632814288 
0.012858406497 0.01300945672 0.013083583374 0.01308125229 0.013005906526 0.01286393886 0.012664501518 0.012419160811 0.012141417115 
0.01184612107 0.011548823976 0.011265106352 0.011009937215 0.010797133235 0.010639004564 0.010546207775 0.0074151172415 0.0071251235862 
0.0068462826571 0.0065815221169 0.0063349877296 0.0061108542351 0.0059126822599 0.0057432357158 0.0056045910503 0.0054983515765 0.0054258520375 
0.0053883157153 0.005386960464 0.0054230500552 0.0054978849061 0.0056127350855 0.0057687306156 0.0059667278716 0.0062071646806 0.0064899089998 
0.0068141036539 0.0071780113809 0.0075788686039 0.0080127602755 0.0084745303082 0.0089577435213 0.0094523596343 0.0099490629315 0.010437838585 
0.010907984389 0.011348482053 0.011748440375 0.012097591843 0.012386817081 0.012608664921 0.012757830762 0.012831554064 0.012829897855 
0.012755879191 0.012615430212 0.012417183233 0.012172089056 0.011892893867 0.011593513929 0.011288357429 0.010991648255 0.010716805288 
0.010475919157 0.010279330245 0.010135191098 0.0077549745956 0.007390706331 0.0070592668951 0.0067599565088 0.0064926652264 0.0062573942403 
0.0060540593269 0.0058825271854 0.0057427263893 0.0056347358683 0.0055588343853 0.0055155299524 0.0055055779946 0.0055299776979 0.0055899331919 
0.0056867766595 0.0058218594977 0.005996417484 0.0062114117829 0.0064673477932 0.006764078728 0.0071006061288 0.0074748930232 0.0078837056344 
0.0083224980968 0.0087853534606 0.0092625636614 0.0097448853731 0.010222420671 0.010684443045 0.011119765933 0.011517191852 0.011866024203 
0.01215661543 0.012380917108 0.012532991444 0.012609441092 0.012609715618 0.012536259254 0.012394476069 0.012192504187 0.011940809157 
0.011651625866 0.011338295105 0.011014552786 0.010693833413 0.010388641047 0.010110015882 0.0098670732479 0.0096665008203 0.0080582525424 
0.0076218284496 0.0072372790105 0.006900497984 0.0066077050727 0.0063555112497 0.0061409791205 0.0059616865338 0.0058157446095 0.0057017799633 
0.005618918759 0.0055667912257 0.0055455423672 0.0055558213541 0.0055987314585 0.0056757371106 0.0057885314349 0.0059388666759 0.0061283502458 
0.0063582144796 0.006629074163 0.0069406889755 0.0072917471349 0.0076796833035 0.0081005417044 0.0085488945388 0.0090154504184 0.0094908293955 
0.0099651372317 0.010427468877 0.01086627467 0.011269818869 0.011626712881 0.011926495859 0.012160226071 0.012321039373 0.012404627517 
0.012409589543 0.012337615718 0.012193475448 0.011984797697 0.011721653554 0.011415972787 0.011080845905 0.010729776859 0.010375954443 
0.010031598905 0.0097074110339 0.0094121012599 0.0091519082647 0.0083052923121 0.0077995789723 0.0073620664968 0.0069858507009 0.006664300214 
0.0063913783052 0.0061617993955 0.0059710761621 0.0058155115165 0.0056921920384 0.0055990098088 0.0055346981249 0.0054988459788 0.0054918646962 
0.0055148997428 0.0055696931344 0.0056584030558 0.0057833851239 0.0059469421835 0.0061510549496 0.0063971088843 0.0066856322912 0.0070160573063 
0.0073865129097 0.0077936593458 0.0082325743799 0.0086945380804 0.009169837331 0.0096485036191 0.010119332147 0.010570245759 0.010988764475 
0.0113625636 0.011680092723 0.011931217623 0.012107838796 0.012204435053 0.012218479821 0.01215068325 0.01200502525 0.011788562955 
0.011511019666 0.011184187492 0.010821198885 0.010435738382 0.010041269725 0.0096503416856 0.0092740062282 0.0089213363037 0.0085989745659 
0.0084779573763 0.0079055898094 0.0074158456172 0.0069996753273 0.0066481010228 0.006352721922 0.0061059801864 0.0059012870345 0.0057331018818 
0.0055970103424 0.0054897971118 0.0054094826845 0.005355298204 0.0053275942588 0.0053276947693 0.005357708743 0.0054203068888 0.0055184672065 
0.0056551966657 0.0058332397157 0.0060547851813 0.0063211817095 0.0066326700331 0.006988141065 0.0073849314721 0.0078186701933 0.0082814255951 
0.0087629663622 0.0092532065013 0.0097405560316 0.010212279309 0.010654973078 0.011055149083 0.011399894535 0.011677572252 0.011878512187 
0.011995638463 0.012024973302 0.011965963139 0.011821583628 0.011598199502 0.011305180746 0.010954304977 0.010559002738 0.010133522132 
0.0096920957344 0.0092481825077 0.0088138288264 0.008399148844 0.0080118742201 0.0085588982218 0.0079228138826 0.0073827397243 0.0069276939343 
0.0065463760266 0.0062279617097 0.0059625681188 0.0057415389325 0.0055576386525 0.0054051854129 0.0052801144426 0.0051799602307 0.0051037621789 
0.0050519127064 0.0050259668246 0.0050284229767 0.0050624767125 0.0051317479405 0.0052399862418 0.0053907613444 0.0055871465659 0.0058314030045 
0.0061246733579 0.0064666976007 0.0068555659375 0.007287525549 0.0077557144215 0.008249226367 0.0087578590082 0.0092695963053 0.0097709521838 
0.010247450136 0.010684226459 0.011066732825 0.011381501076 0.011616920689 0.011763968887 0.011816827909 0.011773325317 0.011635143202 
0.011407761279 0.011100126006 0.010724069536 0.01029353387 0.0098236801688 0.0093299743777 0.0088273335155 0.0083293906306 0.0078478944403 
0.0073922118057 0.0085321134904 0.0078361618445 0.0072487776265 0.0067568600736 0.0063466384727 0.0060048258139 0.0057193108894 0.0054795836112 
0.0052769857414 0.005104828388 0.0049583962883 0.0048348612361 0.0047331335962 0.0046536769956 0.0045982987729 0.0045699169871 0.004572300285 
0.004609779569 0.0046869344421 0.0048082595069 0.0049778169606 0.0051988835791 0.0054736032594 0.0058026602795 0.0061849914866 0.0066175584729 
0.0070949354251 0.0076054290389 0.0081387780114 0.0086825521712 0.0092224668563 0.009742854192 0.010227280218 0.010659287553 0.011023229305 
0.01130514462 0.01149361241 0.011580510509 0.011561605202 0.011436903161 0.011210715715 0.010891413247 0.010490882588 0.010023737326 
0.0095063622758 0.0089558916129 0.0083892191898 0.0078221172604 0.0072685000967 0.0067398220808 0.0083833434562 0.0076321211688 0.0070008942155 
0.0064742545504 0.0060359628202 0.0056704081943 0.0053634765779 0.0051030495654 0.0048792526838 0.0046845272304 0.0045135796706 0.0043632536396 
0.0042323582345 0.0041214698265 0.004032710368 0.0039694983257 0.0039362689039 0.0039381640142 0.0039806949062 0.0040693815189 0.0042093742843 
0.0044050666544 0.0046597101682 0.004975047348 0.0053509804816 0.0057852973537 0.0062745483763 0.0068061286415 0.0073698624567 0.0079529778234 
0.0085403923802 0.0091151670424 0.0096591268113 0.010153637357 0.01058050884 0.010922979463 0.011166713165 0.011300731634 0.011318193153 
0.011216933304 0.010999697284 0.010674021115 0.010251757093 0.0097482822691 0.0091814690977 0.0085705257801 0.0079348221128 0.0072928011944 
0.0066610411613 0.0060534846215 0.0080997098842 0.0072980097435 0.0066263662489 0.0060671066154 0.0056016838694 0.0052123582935 0.0048831906443 
0.0046005820862 0.0043535139667 0.004133592694 0.0039349743478 0.003754219842 0.0035901089847 0.0034434239367 0.00331670342 0.003213967038 
0.0031404104702 0.0031020734509 0.003105482074 0.0031572672446 0.0032637629792 0.0034305912142 0.0036622432324 0.0039616709807 0.0043299049601 
0.0047657192795 0.0052681295973 0.0058237334442 0.0064226355864 0.0070518466306 0.0076955424442 0.008335483178 0.0089516196535 0.0095228907524 
0.010028192212 0.010447474047 0.010762900974 0.01095998969 0.011028622155 0.010963829481 0.0107662503 0.010442192613 0.01000326841 
0.0094656208013 0.0088488154404 0.0081745105426 0.0074650421322 0.0067420566686 0.006025292888 0.0053315683518 0.0076691920381 0.0068217918935 
0.0061131983756 0.0055236415018 0.0050324098668 0.0046197363774 0.0042679145854 0.0039618943321 0.0036895371851 0.0034416574702 0.0032119337136 
0.002996742799 0.0027949446009 0.0026076306056 0.0024378441128 0.0022902770009 0.0021709457585 0.002086846605 0.0020455873667 0.0020549942441 
0.0021226940776 0.0022556760101 0.0024598397988 0.0027395412164 0.0030971499007 0.0035326486298 0.0040477193075 0.0046288115239 0.0052664881318 
0.0059477108086 0.0066560384737 0.0073719706815 0.0080735085924 0.0087369511271 0.0093379163368 0.009852552579 0.010258876713 0.010538148813 
0.010676169062 0.01066436809 0.010500562496 0.010189267138 0.0097414962758 0.0091740434498 0.0085082963082 0.0077687044113 0.0069810607727 
0.0061707703957 0.0053612583078 0.0045726235259 0.0070806117682 0.0061925187117 0.0054507905291 0.0048336616375 0.0043182972967 0.0038829231953 
0.0035080878743 0.0031773328154 0.0028774727332 0.0025986296492 0.0023341170481 0.0020802342598 0.0018360069783 0.0016028962466 0.0013844898219 
0.0011861824719 0.0010148451087 0.00087847768231 0.00078583895575 0.00074604780388 0.0007681537348 0.00086067774031 0.0010311277106 0.0012854947551 
0.0016277362035 0.002059242126 0.002584318054 0.003190620767 0.0038691693031 0.0046071133066 0.0053876221783 0.0061900728096 0.0069905244003 
0.0077624839542 0.00847795951 0.0091087766029 0.009628102592 0.010012087761 0.010241496982 0.010303178024 0.010191200037 0.0099075057989 
0.0094619587721 0.0088717300943 0.0081600537651 0.0073544653377 0.0064847109904 0.0055805518572 0.0046696831472 0.0037759428147 0.0063240751683 
0.0054007900023 0.0046301632055 0.0039884489293 0.0034507111385 0.0029932203234 0.0025948652331 0.0022378895324 0.0019081818277 0.0015952847652 
0.001292236292 0.00099531635857 0.00070374564618 0.00041936538278 0.000146313461 -0.00010929961772 -0.00033971989143 -0.00053589362573 -0.00068783545737 
-0.00078502876913 -0.00081686309878 -0.00077311004805 -0.0006444356187 -0.0004229437855 -0.00010274705973 0.00031941578154 0.00084850477077 0.0014779558212 
0.0021976050876 0.002995325194 0.0038542922136 0.0047530274838 0.005665766741 0.0065631639668 0.0074133464803 0.0081833166335 0.0088406597605 
0.0093554730925 0.0097023816697 0.0098624624154 0.0098248665296 0.0095879245113 0.0091595469223 0.008556801493 0.0078046484328 0.0069339346361 
0.0059788585822 0.0049741932408 0.0039525735887 0.0029421148122 0.0053913693855 0.0044388460144 0.0036437735837 0.0029804790952 0.0024220359389 
0.0019429017419 0.001520456051 0.0011357815151 0.00077394788244 0.0004239885116 7.8699742707e-05 -0.00026565144708 -0.00060965748029 -0.00095110669001 
-0.0012853131472 -0.0016054398769 -0.0019028235026 -0.0021673117946 -0.0023876256648 -0.0025517556585 -0.0026474007953 -0.0026624543971 -0.0025855368047 
-0.002406566847 -0.0021173459852 -0.0017120738551 -0.0011874970421 -0.00053939347548 0.00021913418697 0.0010774693967 0.0020193283062 0.0030227748469 
0.0040604721171 0.005100283546 0.0061062852068 0.0070402162442 0.0078633517151 0.0085387274367 0.0090335824577 0.0093218188628 0.0093862228506 
0.0092201610535 0.0088284777975 0.0082273838105 0.0074432453798 0.0065103397783 0.0054678065205 0.0043561535665 0.0032137359325 0.0020735943471 
0.0042760539159 0.0033004579287 0.0024854089207 0.0018034836908 0.0012259717088 0.00072571003466 0.000278723524 -0.00013495912156 -0.00053102567821 
-0.0009209276136 -0.0013121103844 -0.0017083324823 -0.0021100146106 -0.0025145870949 -0.0029168235915 -0.0033091623297 -0.0036820236178 -0.0040241359257 
-0.0043228840289 -0.0045646926446 -0.0047354577119 -0.0048210346425 -0.0048077885032 -0.0046832046633 -0.0044365488886 -0.0040595528947 -0.0035471011822 
-0.0028889534981 -0.0020969484474 -0.0011799769893 -0.00015326517758 0.00096130571699 0.0021352295843 0.003333801923 0.0045170233784 0.0056410410809 
0.006660145697 0.0075292800454 0.0082069357192 0.0086582240219 0.0088578201877 0.0087924155054 0.0084622946174 0.0078817067694 0.0070778305292 
0.0060883307434 0.0049577378044 0.0037330850963 0.0024593597279 0.0011753150859 0.0029734192251 0.0019809537219 0.0011503872973 0.00045281483882 
-0.00014202110305 -0.00066272110674 -0.0011344906687 -0.0015782810095 -0.0020105006937 -0.0024430741444 -0.0028836922 -0.0033361521282 -0.0038007235088 
-0.004274505812 -0.004751764589 -0.0052242467842 -0.0056814840473 -0.0061110979502 -0.0064991238445 -0.0068303712161 -0.0070888375944 -0.007258190621 
-0.0073223294923 -0.0072660335694 -0.007075705853 -0.0067402352074 -0.0062520841228 -0.0055946230218 -0.0047777030724 -0.0038073243532 -0.0026968827122 
-0.0014675148981 -0.0001483033725 0.0012239042867 0.0026052078807 0.0039460061994 0.0051930507293 0.0062921979292 0.0071917633101 0.0078462644484 
0.0082202145812 0.0082915177847 0.0080539541982 0.0075182652887 0.0067114806742 0.0056743698537 0.0044572164639 0.0031144232374 0.0016986681475 
0.0002553711544 0.0014805624827 0.00047743334074 -0.00036414824043 -0.0010742824263 -0.0016845459313 -0.0022248090264 -0.0027213924369 -0.0031961536167 
-0.0036661802246 -0.0041438540879 -0.0046371188361 -0.0051498389492 -0.0056821802446 -0.0062309739355 -0.0067900490905 -0.0073505334118 -0.007901132346 
-0.008428403188 -0.0089170448278 -0.0093502253547 -0.0097099690549 -0.0099776221906 -0.010134414051 -0.010162126552 -0.010043882806 -0.0097650618576 
-0.0093143264751 -0.0086735957034 -0.007844209445 -0.0068293780357 -0.0056399997971 -0.0042956410707 -0.0028251609826 -0.0012668857538 0.0003318103312 
0.0019156621661 0.0034235257133 0.0047912980605 0.0059556967397 0.0068587080881 0.0074523456882 0.0077031902738 0.0075960546435 0.0071360845116 
0.0063487176843 0.0052772004413 0.0039777702684 0.0025130639872 0.00094466134891 -0.00067420426794 -0.00020341660088 -0.0012110383954 -0.0020591272603 
-0.0027786896739 -0.0034023815847 -0.0039611554425 -0.0044823107431 -0.0049885226454 -0.0054975145227 -0.00602212413 -0.0065705836315 -0.0071468913659 
-0.0077511991916 -0.0083801740753 -0.0090273171839 -0.0096832406125 -0.01033591355 -0.010970897386 -0.011571593765 -0.012119531279 -0.012594716124 
-0.012976070417 -0.013241979489 -0.013370965926 -0.01334250285 -0.013137971435 -0.012741768002 -0.012135720386 -0.011309407515 -0.010262898938 
-0.0090034910266 -0.0075481037754 -0.0059243312988 -0.004171042099 -0.0023383569513 -0.00048680997462 0.0013144903597 0.002990830449 0.0044660162893 
0.0056675165801 0.0065322729974 0.0070125860189 0.0070812682935 0.0067351383355 0.0059959852306 0.0049084251646 0.0035345824482 0.0019461555442 
0.00021498028828 -0.0015965344058 -0.0020772810714 -0.0030834275947 -0.0039336687203 -0.0046595864192 -0.0052946262584 -0.0058705965513 -0.0064156206192 
-0.0069531083403 -0.0075014022354 -0.0080738355324 -0.0086790116766 -0.0093211755539 -0.010000595521 -0.010713912042 -0.011454434819 -0.012212388639 
-0.012975120964 -0.013727292674 -0.014451078267 -0.015126403901 -0.015731252019 -0.016242060592 -0.016634243378 -0.01688285411 -0.016963409288 
-0.0168528612 -0.016530634907 -0.015979329547 -0.015175117248 -0.014113742641 -0.012797674249 -0.011239940779 -0.0094656120433 -0.0075128856982 
-0.0054335679258 -0.0032926942063 -0.0011670273069 0.00085779453719 0.0026915887266 0.0042453935045 0.0054383658217 0.0062051910815 0.00650305492 
0.0063169809666 0.005662293864 0.0045832301267 0.0031473232876 0.0014360329979 -0.00046708017069 -0.0024888387944 -0.0041376986376 -0.005136880687 
-0.0059852578548 -0.0067145802036 -0.0073587390319 -0.0079501505479 -0.0085176180416 -0.0090852393043 -0.0096720094067 -0.010291849734 -0.010953866815 
-0.011662706409 -0.012418917905 -0.013219281446 -0.014057077296 -0.014922296675 -0.015801807098 -0.016679494515 -0.017536410051 -0.018350952079 
-0.019099115623 -0.019754841543 -0.020290497619 -0.02067752248 -0.020887261417 -0.020892023693 -0.020666413564 -0.020189132158 -0.019429518093 
-0.018374115139 -0.017019337305 -0.015373002403 -0.013456233909 -0.011305091023 -0.0089716606367 -0.0065242932553 -0.0040466323134 -0.001635095879 
0.00060545356808 0.0025679435941 0.0041510351533 0.0052681801622 0.005856735744 0.0058856582545 0.0053600868359 0.004321295834 0.0028411556758 
0.0010113269995 -0.001071378954 -0.0033211878609 -0.0063794172968 -0.007366914191 -0.0082098957141 -0.0089398004719 -0.0095905904243 -0.010195048449 
-0.010782549901 -0.011377886165 -0.012000795778 -0.012665935983 -0.013383097345 -0.014157523611 -0.014990247109 -0.015878387152 -0.016815387129 
-0.017791187166 -0.018792344396 -0.019802123236 -0.020800584517 -0.021764706112 -0.022668569946 -0.023483651623 -0.024179249674 -0.02472309188 
-0.025082156762 -0.025223753223 -0.025116928589 -0.024734401251 -0.024045166118 -0.023020223381 -0.021649029225 -0.019932900397 -0.017887500877 
-0.015545075272 -0.012956259197 -0.010191092574 -0.0073387969805 -0.0045058523069 -0.0018119466366 0.00061647914341 0.0026550720658 0.0041923041628 