# vtk DataFile Version 4.1
vtk output
ASCII
DATASET STRUCTURED_GRID
DIMENSIONS 51 51 1
POINTS 2601 float
0 0 0 0.02 0 0 0.04 0 0 
0.06 0 0 0.08 0 0 0.1 0 0 
0.12 0 0 0.14 0 0 0.16 0 0 
0.18 0 0 0.2 0 0 0.22 0 0 
0.24 0 0 0.26 0 0 0.28 0 0 
0.3 0 0 0.32 0 0 0.34 0 0 
0.36 0 0 0.38 0 0 0.4 0 0 
0.42 0 0 0.44 0 0 0.46 0 0 
0.48 0 0 0.5 0 0 0.52 0 0 
0.54 0 0 0.56 0 0 0.58 0 0 
0.6 0 0 0.62 0 0 0.64 0 0 
0.66 0 0 0.68 0 0 0.7 0 0 
0.72 0 0 0.74 0 0 0.76 0 0 
0.78 0 0 0.8 0 0 0.82 0 0 
0.84 0 0 0.86 0 0 0.88 0 0 
0.9 0 0 0.92 0 0 0.94 0 0 
0.96 0 0 0.98 0 0 1 0 0 
0 0.02 0 0.02 0.02 0 0.04 0.02 0 
0.06 0.02 0 0.08 0.02 0 0.1 0.02 0 
0.12 0.02 0 0.14 0.02 0 0.16 0.02 0 
0.18 0.02 0 0.2 0.02 0 0.22 0.02 0 
0.24 0.02 0 0.26 0.02 0 0.28 0.02 0 
0.3 0.02 0 0.32 0.02 0 0.34 0.02 0 
0.36 0.02 0 0.38 0.02 0 0.4 0.02 0 
0.42 0.02 0 0.44 0.02 0 0.46 0.02 0 
0.48 0.02 0 0.5 0.02 0 0.52 0.02 0 
0.54 0.02 0 0.56 0.02 0 0.58 0.02 0 
0.6 0.02 0 0.62 0.02 0 0.64 0.02 0 
0.66 0.02 0 0.68 0.02 0 0.7 0.02 0 
0.72 0.02 0 0.74 0.02 0 0.76 0.02 0 
0.78 0.02 0 0.8 0.02 0 0.82 0.02 0 
0.84 0.02 0 0.86 0.02 0 0.88 0.02 0 
0.9 0.02 0 0.92 0.02 0 0.94 0.02 0 
0.96 0.02 0 0.98 0.02 0 1 0.02 0 
0 0.04 0 0.02 0.04 0 0.04 0.04 0 
0.06 0.04 0 0.08 0.04 0 0.1 0.04 0 
0.12 0.04 0 0.14 0.04 0 0.16 0.04 0 
0.18 0.04 0 0.2 0.04 0 0.22 0.04 0 
0.24 0.04 0 0.26 0.04 0 0.28 0.04 0 
0.3 0.04 0 0.32 0.04 0 0.34 0.04 0 
0.36 0.04 0 0.38 0.04 0 0.4 0.04 0 
0.42 0.04 0 0.44 0.04 0 0.46 0.04 0 
0.48 0.04 0 0.5 0.04 0 0.52 0.04 0 
0.54 0.04 0 0.56 0.04 0 0.58 0.04 0 
0.6 0.04 0 0.62 0.04 0 0.64 0.04 0 
0.66 0.04 0 0.68 0.04 0 0.7 0.04 0 
0.72 0.04 0 0.74 0.04 0 0.76 0.04 0 
0.78 0.04 0 0.8 0.04 0 0.82 0.04 0 
0.84 0.04 0 0.86 0.04 0 0.88 0.04 0 
0.9 0.04 0 0.92 0.04 0 0.94 0.04 0 
0.96 0.04 0 0.98 0.04 0 1 0.04 0 
0 0.06 0 0.02 0.06 0 0.04 0.06 0 
0.06 0.06 0 0.08 0.06 0 0.1 0.06 0 
0.12 0.06 0 0.14 0.06 0 0.16 0.06 0 
0.18 0.06 0 0.2 0.06 0 0.22 0.06 0 
0.24 0.06 0 0.26 0.06 0 0.28 0.06 0 
0.3 0.06 0 0.32 0.06 0 0.34 0.06 0 
0.36 0.06 0 0.38 0.06 0 0.4 0.06 0 
0.42 0.06 0 0.44 0.06 0 0.46 0.06 0 
0.48 0.06 0 0.5 0.06 0 0.52 0.06 0 
0.54 0.06 0 0.56 0.06 0 0.58 0.06 0 
0.6 0.06 0 0.62 0.06 0 0.64 0.06 0 
0.66 0.06 0 0.68 0.06 0 0.7 0.06 0 
0.72 0.06 0 0.74 0.06 0 0.76 0.06 0 
0.78 0.06 0 0.8 0.06 0 0.82 0.06 0 
0.84 0.06 0 0.86 0.06 0 0.88 0.06 0 
0.9 0.06 0 0.92 0.06 0 0.94 0.06 0 
0.96 0.06 0 0.98 0.06 0 1 0.06 0 
0 0.08 0 0.02 0.08 0 0.04 0.08 0 
0.06 0.08 0 0.08 0.08 0 0.1 0.08 0 
0.12 0.08 0 0.14 0.08 0 0.16 0.08 0 
0.18 0.08 0 0.2 0.08 0 0.22 0.08 0 
0.24 0.08 0 0.26 0.08 0 0.28 0.08 0 
0.3 0.08 0 0.32 0.08 0 0.34 0.08 0 
0.36 0.08 0 0.38 0.08 0 0.4 0.08 0 
0.42 0.08 0 0.44 0.08 0 0.46 0.08 0 
0.48 0.08 0 0.5 0.08 0 0.52 0.08 0 
0.54 0.08 0 0.56 0.08 0 0.58 0.08 0 
0.6 0.08 0 0.62 0.08 0 0.64 0.08 0 
0.66 0.08 0 0.68 0.08 0 0.7 0.08 0 
0.72 0.08 0 0.74 0.08 0 0.76 0.08 0 
0.78 0.08 0 0.8 0.08 0 0.82 0.08 0 
0.84 0.08 0 0.86 0.08 0 0.88 0.08 0 
0.9 0.08 0 0.92 0.08 0 0.94 0.08 0 
0.96 0.08 0 0.98 0.08 0 1 0.08 0 
0 0.1 0 0.02 0.1 0 0.04 0.1 0 
0.06 0.1 0 0.08 0.1 0 0.1 0.1 0 
0.12 0.1 0 0.14 0.1 0 0.16 0.1 0 
0.18 0.1 0 0.2 0.1 0 0.22 0.1 0 
0.24 0.1 0 0.26 0.1 0 0.28 0.1 0 
0.3 0.1 0 0.32 0.1 0 0.34 0.1 0 
0.36 0.1 0 0.38 0.1 0 0.4 0.1 0 
0.42 0.1 0 0.44 0.1 0 0.46 0.1 0 
0.48 0.1 0 0.5 0.1 0 0.52 0.1 0 
0.54 0.1 0 0.56 0.1 0 0.58 0.1 0 
0.6 0.1 0 0.62 0.1 0 0.64 0.1 0 
0.66 0.1 0 0.68 0.1 0 0.7 0.1 0 
0.72 0.1 0 0.74 0.1 0 0.76 0.1 0 
0.78 0.1 0 0.8 0.1 0 0.82 0.1 0 
0.84 0.1 0 0.86 0.1 0 0.88 0.1 0 
0.9 0.1 0 0.92 0.1 0 0.94 0.1 0 
0.96 0.1 0 0.98 0.1 0 1 0.1 0 
0 0.12 0 0.02 0.12 0 0.04 0.12 0 
0.06 0.12 0 0.08 0.12 0 0.1 0.12 0 
0.12 0.12 0 0.14 0.12 0 0.16 0.12 0 
0.18 0.12 0 0.2 0.12 0 0.22 0.12 0 
0.24 0.12 0 0.26 0.12 0 0.28 0.12 0 
0.3 0.12 0 0.32 0.12 0 0.34 0.12 0 
0.36 0.12 0 0.38 0.12 0 0.4 0.12 0 
0.42 0.12 0 0.44 0.12 0 0.46 0.12 0 
0.48 0.12 0 0.5 0.12 0 0.52 0.12 0 
0.54 0.12 0 0.56 0.12 0 0.58 0.12 0 
0.6 0.12 0 0.62 0.12 0 0.64 0.12 0 
0.66 0.12 0 0.68 0.12 0 0.7 0.12 0 
0.72 0.12 0 0.74 0.12 0 0.76 0.12 0 
0.78 0.12 0 0.8 0.12 0 0.82 0.12 0 
0.84 0.12 0 0.86 0.12 0 0.88 0.12 0 
0.9 0.12 0 0.92 0.12 0 0.94 0.12 0 
0.96 0.12 0 0.98 0.12 0 1 0.12 0 
0 0.14 0 0.02 0.14 0 0.04 0.14 0 
0.06 0.14 0 0.08 0.14 0 0.1 0.14 0 
0.12 0.14 0 0.14 0.14 0 0.16 0.14 0 
0.18 0.14 0 0.2 0.14 0 0.22 0.14 0 
0.24 0.14 0 0.26 0.14 0 0.28 0.14 0 
0.3 0.14 0 0.32 0.14 0 0.34 0.14 0 
0.36 0.14 0 0.38 0.14 0 0.4 0.14 0 
0.42 0.14 0 0.44 0.14 0 0.46 0.14 0 
0.48 0.14 0 0.5 0.14 0 0.52 0.14 0 
0.54 0.14 0 0.56 0.14 0 0.58 0.14 0 
0.6 0.14 0 0.62 0.14 0 0.64 0.14 0 
0.66 0.14 0 0.68 0.14 0 0.7 0.14 0 
0.72 0.14 0 0.74 0.14 0 0.76 0.14 0 
0.78 0.14 0 0.8 0.14 0 0.82 0.14 0 
0.84 0.14 0 0.86 0.14 0 0.88 0.14 0 
0.9 0.14 0 0.92 0.14 0 0.94 0.14 0 
0.96 0.14 0 0.98 0.14 0 1 0.14 0 
0 0.16 0 0.02 0.16 0 0.04 0.16 0 
0.06 0.16 0 0.08 0.16 0 0.1 0.16 0 
0.12 0.16 0 0.14 0.16 0 0.16 0.16 0 
0.18 0.16 0 0.2 0.16 0 0.22 0.16 0 
0.24 0.16 0 0.26 0.16 0 0.28 0.16 0 
0.3 0.16 0 0.32 0.16 0 0.34 0.16 0 
0.36 0.16 0 0.38 0.16 0 0.4 0.16 0 
0.42 0.16 0 0.44 0.16 0 0.46 0.16 0 
0.48 0.16 0 0.5 0.16 0 0.52 0.16 0 
0.54 0.16 0 0.56 0.16 0 0.58 0.16 0 
0.6 0.16 0 0.62 0.16 0 0.64 0.16 0 
0.66 0.16 0 0.68 0.16 0 0.7 0.16 0 
0.72 0.16 0 0.74 0.16 0 0.76 0.16 0 
0.78 0.16 0 0.8 0.16 0 0.82 0.16 0 
0.84 0.16 0 0.86 0.16 0 0.88 0.16 0 
0.9 0.16 0 0.92 0.16 0 0.94 0.16 0 
0.96 0.16 0 0.98 0.16 0 1 0.16 0 
0 0.18 0 0.02 0.18 0 0.04 0.18 0 
0.06 0.18 0 0.08 0.18 0 0.1 0.18 0 
0.12 0.18 0 0.14 0.18 0 0.16 0.18 0 
0.18 0.18 0 0.2 0.18 0 0.22 0.18 0 
0.24 0.18 0 0.26 0.18 0 0.28 0.18 0 
0.3 0.18 0 0.32 0.18 0 0.34 0.18 0 
0.36 0.18 0 0.38 0.18 0 0.4 0.18 0 
0.42 0.18 0 0.44 0.18 0 0.46 0.18 0 
0.48 0.18 0 0.5 0.18 0 0.52 0.18 0 
0.54 0.18 0 0.56 0.18 0 0.58 0.18 0 
0.6 0.18 0 0.62 0.18 0 0.64 0.18 0 
0.66 0.18 0 0.68 0.18 0 0.7 0.18 0 
0.72 0.18 0 0.74 0.18 0 0.76 0.18 0 
0.78 0.18 0 0.8 0.18 0 0.82 0.18 0 
0.84 0.18 0 0.86 0.18 0 0.88 0.18 0 
0.9 0.18 0 0.92 0.18 0 0.94 0.18 0 
0.96 0.18 0 0.98 0.18 0 1 0.18 0 
0 0.2 0 0.02 0.2 0 0.04 0.2 0 
0.06 0.2 0 0.08 0.2 0 0.1 0.2 0 
0.12 0.2 0 0.14 0.2 0 0.16 0.2 0 
0.18 0.2 0 0.2 0.2 0 0.22 0.2 0 
0.24 0.2 0 0.26 0.2 0 0.28 0.2 0 
0.3 0.2 0 0.32 0.2 0 0.34 0.2 0 
0.36 0.2 0 0.38 0.2 0 0.4 0.2 0 
0.42 0.2 0 0.44 0.2 0 0.46 0.2 0 
0.48 0.2 0 0.5 0.2 0 0.52 0.2 0 
0.54 0.2 0 0.56 0.2 0 0.58 0.2 0 
0.6 0.2 0 0.62 0.2 0 0.64 0.2 0 
0.66 0.2 0 0.68 0.2 0 0.7 0.2 0 
0.72 0.2 0 0.74 0.2 0 0.76 0.2 0 
0.78 0.2 0 0.8 0.2 0 0.82 0.2 0 
0.84 0.2 0 0.86 0.2 0 0.88 0.2 0 
0.9 0.2 0 0.92 0.2 0 0.94 0.2 0 
0.96 0.2 0 0.98 0.2 0 1 0.2 0 
0 0.22 0 0.02 0.22 0 0.04 0.22 0 
0.06 0.22 0 0.08 0.22 0 0.1 0.22 0 
0.12 0.22 0 0.14 0.22 0 0.16 0.22 0 
0.18 0.22 0 0.2 0.22 0 0.22 0.22 0 
0.24 0.22 0 0.26 0.22 0 0.28 0.22 0 
0.3 0.22 0 0.32 0.22 0 0.34 0.22 0 
0.36 0.22 0 0.38 0.22 0 0.4 0.22 0 
0.42 0.22 0 0.44 0.22 0 0.46 0.22 0 
0.48 0.22 0 0.5 0.22 0 0.52 0.22 0 
0.54 0.22 0 0.56 0.22 0 0.58 0.22 0 
0.6 0.22 0 0.62 0.22 0 0.64 0.22 0 
0.66 0.22 0 0.68 0.22 0 0.7 0.22 0 
0.72 0.22 0 0.74 0.22 0 0.76 0.22 0 
0.78 0.22 0 0.8 0.22 0 0.82 0.22 0 
0.84 0.22 0 0.86 0.22 0 0.88 0.22 0 
0.9 0.22 0 0.92 0.22 0 0.94 0.22 0 
0.96 0.22 0 0.98 0.22 0 1 0.22 0 
0 0.24 0 0.02 0.24 0 0.04 0.24 0 
0.06 0.24 0 0.08 0.24 0 0.1 0.24 0 
0.12 0.24 0 0.14 0.24 0 0.16 0.24 0 
0.18 0.24 0 0.2 0.24 0 0.22 0.24 0 
0.24 0.24 0 0.26 0.24 0 0.28 0.24 0 
0.3 0.24 0 0.32 0.24 0 0.34 0.24 0 
0.36 0.24 0 0.38 0.24 0 0.4 0.24 0 
0.42 0.24 0 0.44 0.24 0 0.46 0.24 0 
0.48 0.24 0 0.5 0.24 0 0.52 0.24 0 
0.54 0.24 0 0.56 0.24 0 0.58 0.24 0 
0.6 0.24 0 0.62 0.24 0 0.64 0.24 0 
0.66 0.24 0 0.68 0.24 0 0.7 0.24 0 
0.72 0.24 0 0.74 0.24 0 0.76 0.24 0 
0.78 0.24 0 0.8 0.24 0 0.82 0.24 0 
0.84 0.24 0 0.86 0.24 0 0.88 0.24 0 
0.9 0.24 0 0.92 0.24 0 0.94 0.24 0 
0.96 0.24 0 0.98 0.24 0 1 0.24 0 
0 0.26 0 0.02 0.26 0 0.04 0.26 0 
0.06 0.26 0 0.08 0.26 0 0.1 0.26 0 
0.12 0.26 0 0.14 0.26 0 0.16 0.26 0 
0.18 0.26 0 0.2 0.26 0 0.22 0.26 0 
0.24 0.26 0 0.26 0.26 0 0.28 0.26 0 
0.3 0.26 0 0.32 0.26 0 0.34 0.26 0 
0.36 0.26 0 0.38 0.26 0 0.4 0.26 0 
0.42 0.26 0 0.44 0.26 0 0.46 0.26 0 
0.48 0.26 0 0.5 0.26 0 0.52 0.26 0 
0.54 0.26 0 0.56 0.26 0 0.58 0.26 0 
0.6 0.26 0 0.62 0.26 0 0.64 0.26 0 
0.66 0.26 0 0.68 0.26 0 0.7 0.26 0 
0.72 0.26 0 0.74 0.26 0 0.76 0.26 0 
0.78 0.26 0 0.8 0.26 0 0.82 0.26 0 
0.84 0.26 0 0.86 0.26 0 0.88 0.26 0 
0.9 0.26 0 0.92 0.26 0 0.94 0.26 0 
0.96 0.26 0 0.98 0.26 0 1 0.26 0 
0 0.28 0 0.02 0.28 0 0.04 0.28 0 
0.06 0.28 0 0.08 0.28 0 0.1 0.28 0 
0.12 0.28 0 0.14 0.28 0 0.16 0.28 0 
0.18 0.28 0 0.2 0.28 0 0.22 0.28 0 
0.24 0.28 0 0.26 0.28 0 0.28 0.28 0 
0.3 0.28 0 0.32 0.28 0 0.34 0.28 0 
0.36 0.28 0 0.38 0.28 0 0.4 0.28 0 
0.42 0.28 0 0.44 0.28 0 0.46 0.28 0 
0.48 0.28 0 0.5 0.28 0 0.52 0.28 0 
0.54 0.28 0 0.56 0.28 0 0.58 0.28 0 
0.6 0.28 0 0.62 0.28 0 0.64 0.28 0 
0.66 0.28 0 0.68 0.28 0 0.7 0.28 0 
0.72 0.28 0 0.74 0.28 0 0.76 0.28 0 
0.78 0.28 0 0.8 0.28 0 0.82 0.28 0 
0.84 0.28 0 0.86 0.28 0 0.88 0.28 0 
0.9 0.28 0 0.92 0.28 0 0.94 0.28 0 
0.96 0.28 0 0.98 0.28 0 1 0.28 0 
0 0.3 0 0.02 0.3 0 0.04 0.3 0 
0.06 0.3 0 0.08 0.3 0 0.1 0.3 0 
0.12 0.3 0 0.14 0.3 0 0.16 0.3 0 
0.18 0.3 0 0.2 0.3 0 0.22 0.3 0 
0.24 0.3 0 0.26 0.3 0 0.28 0.3 0 
0.3 0.3 0 0.32 0.3 0 0.34 0.3 0 
0.36 0.3 0 0.38 0.3 0 0.4 0.3 0 
0.42 0.3 0 0.44 0.3 0 0.46 0.3 0 
0.48 0.3 0 0.5 0.3 0 0.52 0.3 0 
0.54 0.3 0 0.56 0.3 0 0.58 0.3 0 
0.6 0.3 0 0.62 0.3 0 0.64 0.3 0 
0.66 0.3 0 0.68 0.3 0 0.7 0.3 0 
0.72 0.3 0 0.74 0.3 0 0.76 0.3 0 
0.78 0.3 0 0.8 0.3 0 0.82 0.3 0 
0.84 0.3 0 0.86 0.3 0 0.88 0.3 0 
0.9 0.3 0 0.92 0.3 0 0.94 0.3 0 
0.96 0.3 0 0.98 0.3 0 1 0.3 0 
0 0.32 0 0.02 0.32 0 0.04 0.32 0 
0.06 0.32 0 0.08 0.32 0 0.1 0.32 0 
0.12 0.32 0 0.14 0.32 0 0.16 0.32 0 
0.18 0.32 0 0.2 0.32 0 0.22 0.32 0 
0.24 0.32 0 0.26 0.32 0 0.28 0.32 0 
0.3 0.32 0 0.32 0.32 0 0.34 0.32 0 
0.36 0.32 0 0.38 0.32 0 0.4 0.32 0 
0.42 0.32 0 0.44 0.32 0 0.46 0.32 0 
0.48 0.32 0 0.5 0.32 0 0.52 0.32 0 
0.54 0.32 0 0.56 0.32 0 0.58 0.32 0 
[...]
CELL_DATA 2500
FIELD FieldData 1
pressure 1 2500 double
0.0061845777416 0.0061204915335 0.0059304094773 0.0056533155731 0.0053312053503 0.004998943951 0.0046826338425 0.0044005532951 0.0041648052795 
0.003982982597 0.0038596107746 0.0037972932007 0.0037975443739 0.0038613217949 0.0039892879575 0.0041818575218 0.0044391007637 0.0047605732069 
0.0051451248038 0.0055907190484 0.0060942719282 0.0066515085411 0.0072568322712 0.0079032054125 0.0085820448968 0.0092831357618 0.0099942016079 
0.010702054952 0.011392782682 0.01205186267 0.012664592093 0.013216616683 0.013694525703 0.014086479029 0.014382831032 0.014576714396 
0.014664547367 0.014646431741 0.01452641659 0.014312613962 0.014017167016 0.013656086493 0.013248984966 0.012818744417 0.012391149561 
0.011994388341 0.011658288736 0.011412392365 0.011280787344 0.011268379968 0.0062535192709 0.0061858745011 0.0060209967054 0.0057904383833 
0.0055247540804 0.0052499868946 0.0049864997443 0.0047493467742 0.0045492579354 0.0043937045343 0.0042878285828 0.0042351702281 0.0042381851821 
0.0042985698701 0.0044174308175 0.0045953446267 0.0048323499865 0.0051278982582 0.0054807746165 0.0058889935537 0.0063496718316 0.0068588861401 
0.0074115287519 0.0080011802226 0.008620021431 0.0092588124851 0.0099059931549 0.01054959532 0.011177049866 0.011775270316 0.012331069729 
0.012831646368 0.013265120042 0.013621092873 0.013891203475 0.014069641079 0.014153586302 0.014143548787 0.014043578733 0.013861338925 
0.013608035451 0.013298216561 0.012949457017 0.012581944354 0.012217964536 0.011881232618 0.01159587327 0.011384847978 0.011267322728 
0.011255962892 0.0064460977082 0.00634545995 0.0061780050842 0.0059666588548 0.0057324391843 0.005493575832 0.0052650882701 0.0050589172938 
0.0048843067282 0.0047482498855 0.0046559245769 0.0046110806416 0.0046163589159 0.0046735370247 0.0047837108078 0.0049474203189 0.0051647197154 
0.0054351843006 0.0057578519153 0.006131106503 0.0065525225856 0.0070186956701 0.0075250854734 0.0080658965694 0.0086340170984 0.0092210349862 
0.0098158538773 0.010407500726 0.010984431739 0.011534619517 0.012045950602 0.012506682384 0.012905944885 0.013234263892 0.013484076009 
0.01365020298 0.013730252585 0.013724916619 0.013638142697 0.013477165601 0.01325239453 0.012977162762 0.01266735361 0.012340917345 
0.012017284472 0.011716660281 0.011459158468 0.011263809295 0.011147666531 0.011126166107 0.0067276883003 0.0065741309969 0.0063835150023 
0.0061695414854 0.0059454416758 0.0057234966722 0.0055145881922 0.0053279321455 0.0051709869542 0.0050495320932 0.0049678759263 0.0049291254176 
0.0049354586093 0.0049883664007 0.0050888467041 0.0052375352512 0.0054347569255 0.0056804912035 0.005974261895 0.0063149756966 0.0067007400189 
0.0071286883445 0.0075948358648 0.0080939809099 0.0086196626896 0.0091641845404 0.0097168235929 0.010267388671 0.010805082429 0.011318602678 
0.011796522468 0.012227731828 0.012601925002 0.012910109087 0.013145104103 0.013302001104 0.013378544573 0.013375408214 0.013296339258 
0.013148155566 0.012940590726 0.012685993615 0.012398898425 0.012095486823 0.011792964987 0.011508877996 0.011260394425 0.011063651844 
0.010933374375 0.010883209261 0.007061792361 0.006843546529 0.0066142787933 0.0063807116516 0.0061505719667 0.0059317571848 0.0057316151611 
0.00555644748 0.0054112982514 0.005300002123 0.0052253905299 0.0051895483214 0.005194051971 0.0052401592528 0.0053289356986 0.0054613048806 
0.0056380163162 0.0058595398529 0.006125909294 0.0064365431169 0.0067900662748 0.0071841501264 0.0076153818151 0.0080791704901 0.0085696972221 
0.0090799170909 0.0095994515632 0.010118667536 0.01062726761 0.011114378186 0.011568921006 0.011980051774 0.012337647552 0.01263281763 
0.012858406691 0.013009455232 0.013083581379 0.013081250506 0.013005905237 0.01286393809 0.012664501181 0.012419160785 0.012141417307 
0.011846121392 0.011548824338 0.011265106687 0.011009937485 0.010797133436 0.010639004727 0.010546207927 0.0074143593113 0.0071245957736 
0.0068465515765 0.0065825596005 0.0063363344788 0.0061119605152 0.0059131875928 0.0057430652952 0.0056038970205 0.0054973960873 0.0054249052737 
0.0053875898418 0.0053865731371 0.0054230132099 0.0054981204578 0.0056131137733 0.0057691197055 0.0059670296049 0.0062073341233 0.0064899509718 
0.0068140556477 0.0071779220463 0.0075787798429 0.008012697246 0.0084745001662 0.0089577405111 0.0094523723872 0.0099490806847 0.010437854248 
0.010907994866 0.011348487134 0.011748441329 0.012097590324 0.012386814561 0.01260866244 0.012757828873 0.012831552931 0.012829897376 
0.012755879152 0.012615430423 0.012417183557 0.012172089411 0.011892894219 0.011593514247 0.011288357687 0.010991648449 0.010716805426 
0.010475919261 0.010279330344 0.010135191201 0.0077551703669 0.0073913483654 0.007059958755 0.0067602510184 0.0064923382228 0.0062565296408 
0.006052968463 0.0058815701089 0.0057421541573 0.0056346266398 0.0055591180653 0.0055160531771 0.005506167521 0.0055304862117 0.0055902671214 
0.0056869069703 0.005821814931 0.00599626309 0.0062112215291 0.0064671815881 0.0067639701193 0.0071005616497 0.0074748996273 0.0078837411802 
0.0083225409536 0.0087853886027 0.0092625845279 0.009744892446 0.010222418222 0.010684436075 0.011119758331 0.011517185796 0.011866020405 
0.012156613714 0.012380916896 0.012532992082 0.012609442048 0.012609716535 0.012536259961 0.012394476544 0.012192504467 0.011940809308 
0.011651625949 0.011338295149 0.011014552811 0.010693833438 0.010388641078 0.010110015927 0.0098670733085 0.0096665008862 0.0080591522807 
0.0076224451207 0.0072371130925 0.006899523032 0.0066062825423 0.0063541742383 0.0061401796774 0.0059616245677 0.0058163409716 0.0057027679968 
0.005619978064 0.0055676564216 0.0055460598231 0.0055559589969 0.0055985568175 0.0056753770355 0.0057881253621 0.0059385262785 0.0061281364578 
0.0063581355005 0.006629099806 0.0069407721228 0.0072918429894 0.0076797610877 0.0081005879917 0.0085489101996 0.0090154445602 0.0094908132284 
0.009965119812 0.01042745541 0.010866266824 0.011269816003 0.011626713376 0.011926498054 0.012160228685 0.012321041635 0.012404629107 
0.012409590445 0.012337616085 0.012193475481 0.011984797557 0.011721653361 0.011415972611 0.011080845777 0.010729776793 0.010375954435 
0.010031598937 0.009707411091 0.0094121013249 0.0091519083258 0.0083059866323 0.0077995390774 0.0073612646787 0.0069846930622 0.0066633116313 
0.0063909597825 0.0061620806245 0.0059719129642 0.0058165972557 0.005693202803 0.0055997122594 0.0055349929866 0.0054987587611 0.0054915076563 
0.0055144237708 0.0055692413027 0.0056580751818 0.005783221296 0.0059469275098 0.0061511397202 0.0063972338068 0.0066857488719 0.0070161379457 
0.0073865509704 0.0077936628227 0.0082325576019 0.0086945148869 0.009169817162 0.0096484906795 0.010119326608 0.010570245665 0.010988767355 
0.011362567424 0.011680096212 0.011931220175 0.01210784031 0.012204435711 0.012218479908 0.012150683044 0.012005024944 0.011788562655 
0.011511019431 0.01118418734 0.010821198816 0.010435738389 0.010041269785 0.0096503417703 0.009274006319 0.0089213363856 0.0085989746373 
0.0084780833491 0.0079052793229 0.0074153405442 0.0069993019921 0.0066480782613 0.0063530845366 0.006106594232 0.0059019384742 0.0057335996944 
0.0055972507444 0.0054897730851 0.0054092570138 0.0053549667611 0.0053272549502 0.0053274252776 0.0053575525249 0.0054202687706 0.0055185201365 
0.0056552970123 0.0058333445385 0.0060548649339 0.0063212247726 0.0066326798104 0.0069881292494 0.0073849111731 0.0078186513426 0.0082814132639 
0.0087629613064 0.0092532068926 0.0097405592898 0.010212283293 0.010654976516 0.011055151494 0.011399895918 0.011677572826 0.011878512242 
0.011995638263 0.01202497304 0.011965962925 0.011821583488 0.011598199427 0.011305180726 0.010954305 0.0105590028 0.010133522226 
0.0096920958414 0.0092481826126 0.0088138289216 0.0083991489247 0.0080118742927 0.0085588209329 0.0079228230318 0.0073828919796 0.0069279543952 
0.0065466561997 0.0062281562093 0.0059626018619 0.0057414018332 0.0055573856855 0.0054049039473 0.0052798826176 0.0051798210565 0.0051037211554 
0.005051950163 0.0050260522985 0.0050285250298 0.0050625686598 0.0051318118219 0.0052400151723 0.0053907591434 0.0055871244022 0.0058313742312 
0.0061246487869 0.0064666829774 0.0068555619012 0.0072875293061 0.0077557219106 0.0082492340176 0.0087578646628 0.0092695993504 0.0097709530707 
0.010247449739 0.010684225586 0.011066731977 0.011381500474 0.011616920379 0.011763968827 0.011816828024 0.011773325523 0.011635143419 
0.011407761465 0.011100126152 0.01072406965 0.010293533969 0.0098236802615 0.0093299744611 0.0088273335899 0.0083293906972 0.0078478944997 
0.0073922118636 0.0085322505215 0.0078365403838 0.0072491677533 0.0067570457216 0.0063465199936 0.0060044288777 0.0057187598889 0.0054790469852 
0.0052766106333 0.0051046908373 0.0049584868005 0.0048351061839 0.0047334348733 0.0046539483817 0.0045984864284 0.0045700032598 0.0045722967889 
0.0046097157 0.0046868452025 0.0048081752807 0.0049777570838 0.005198854521 0.0054736009742 0.0058026749577 0.0061850124507 0.0066175775716 
0.00709494835 0.007605434986 0.0081387784567 0.0086825494982 0.0092224632519 0.009742851085 0.010227278204 0.010659286621 0.011023229168 
0.011305144948 0.011493612935 0.011580511056 0.011561605666 0.011436903495 0.011210715927 0.010891413367 0.010490882653 0.010023737367 
0.0095063623079 0.0089558916418 0.0083892192207 0.0078221172937 0.0072685001315 0.0067398221177 0.0083836752376 0.0076324936937 0.007001041036 
0.0064740643773 0.0060354907901 0.0056698166904 0.0053629578703 0.0051027526503 0.0048792367052 0.0046847551569 0.004513948532 0.0043636420348 
0.0042326681573 0.0041216489071 0.0040327533705 0.0039694348996 0.0039361461329 0.0039380297517 0.0039805853751 0.0040693151728 0.0042093521495 
0.0044050775572 0.0046597380556 0.0049750777104 0.0053510040039 0.0057853105505 0.006274552155 0.0068061261334 0.0073698571624 0.0079529724501 
0.0085403884075 0.0091151648613 0.0096591261255 0.010153637612 0.01058050953 0.010922980241 0.011166713846 0.011300732146 0.011318193486 
0.011216933482 0.010999697357 0.010674021126 0.010251757079 0.0097482822531 0.0091814690875 0.0085705257792 0.0079348221226 0.0072928012107 
0.0066610411806 0.006053484641 0.0080999502974 0.0072981257897 0.0066262637817 0.0060668254484 0.0056013394607 0.0052120805369 0.0048830727682 
0.0046006517041 0.0043537328755 0.0041338813394 0.00393524682 0.0037544129316 0.0035901955476 0.0034434108118 0.0033166201673 0.0032138522704 
0.0031403000448 0.0031019922698 0.0031054403809 0.003157261709 0.0032637815028 0.0034306192107 0.0036622689085 0.0039616879624 0.0043299121368 
0.0047657189465 0.0052681252412 0.0058237281218 0.006422631232 0.0070518439997 0.0076955414383 0.008335483286 0.008951620303 0.0095228915182 
0.01002819287 0.010447474524 0.010762901279 0.010959989861 0.011028622229 0.010963829495 0.010766250284 0.010442192588 0.010003268387 
0.0094656207874 0.008848815435 0.0081745105463 0.0074650421432 0.0067420566812 0.0060252928994 0.0053315683595 0.007669201847 0.0068217534625 
0.0061131440015 0.0055236090944 0.0050324235868 0.0046198002997 0.0042680130868 0.0039619990302 0.0036896187946 0.0034416973243 0.0032119291901 
0.0029967047265 0.002794889861 0.0026075751032 0.0024377990751 0.0022902483798 0.0021709349141 0.002086850984 0.0020456014104 0.002055011092 
0.002122707777 0.0022556832852 0.0024598405417 0.0027395375963 0.0030971448041 0.0035326443291 0.0040477168648 0.0046288109233 0.0052664887771 
0.005947711974 0.0066560395995 0.0073719714783 0.0080735090045 0.0087369512447 0.009337916295 0.0098525524875 0.010258876637 0.010538148774 
0.010676169055 0.010664368104 0.010500562521 0.010189267164 0.009741496299 0.0091740434691 0.0085082963242 0.0077687044267 0.0069810607865 
0.0061707704048 0.0053612583118 0.0045726235236 0.0070805115285 0.0061925422883 0.0054509373264 0.0048338624536 0.0043184717376 0.003883011631 
0.0035080670132 0.0031772165611 0.0028773022171 0.0025984565255 0.0023339854812 0.0020801679351 0.0018360056692 0.0016029417614 0.0013845567359 
0.0011862480141 0.0010148946283 0.00087850539663 0.00078584596594 0.00074603939837 0.00076813694229 0.00086065936354 0.0010311128577 0.0012854860164 
0.0016277336692 0.0020592441358 0.0025843222724 0.003190625159 0.003869172632 0.0046071151621 0.0053876227416 0.0061900725351 0.0069905237582 
0.0077624832922 0.0084779590107 0.0091087763147 0.0096281024875 0.010012087781 0.010241497066 0.01030317813 0.010191200136 0.0099075058756 
0.0094619588253 0.0088717301278 0.0081600537853 0.0073544653504 0.0064847109965 0.0055805518563 0.0046696831404 0.0037759428011 0.0063240320064 
0.0054009241398 0.0046303869464 0.0039886368418 0.0034507768936 0.0029931380664 0.0025946650868 0.0022376369666 0.001907950613 0.0015951320369 
0.0012921869911 0.00099536110122 0.00070385080249 0.00041948920501 0.00014642075222 -0.00010922922498 -0.00033969097225 -0.00053589903532 -0.00068786213366 
-0.00078506293052 -0.00081689381774 -0.00077313098186 -0.00064444511938 -0.0004229437927 -0.00010274134032 0.00031942334871 0.00084851135807 0.0014779600749 
0.0021976069038 0.0029953251948 0.0038542912402 0.0047530262482 0.0056657656831 0.0065631632639 0.0074133461262 0.0081833165389 0.0088406598234 
0.0093554732276 0.0097023818212 0.0098624625519 0.0098248666333 0.009587924579 0.0091595469606 0.0085568015101 0.0078046484376 0.0069339346338 
0.0059788585736 0.0049741932266 0.0039525735693 0.0029421147863 0.0053914035713 0.0044389733106 0.0036438966405 0.0029805188326 0.0024219670227 
0.0019427467098 0.0015202661245 0.0011356140004 0.00077384653796 0.00042397139582 7.8757328053e-05 -0.00026554842675 -0.00060954479482 -0.00095101411303 
-0.0012852571699 -0.0016054227432 -0.0019028369223 -0.0021673424879 -0.0023876603708 -0.0025517844887 -0.0026474186909 -0.0026624609026 -0.0025855346857 
-0.0024065602102 -0.0021173385932 -0.0017120681418 -0.0011874939077 -0.00053939265687 0.00021913350991 0.0010774680951 0.0020193270168 0.0030227738916 
0.0040604715647 0.0051002833199 0.0061062851832 0.0070402163191 0.0078633518231 0.0085387275429 0.0090335825483 0.0093218189312 0.0093862228932 
0.0092201610733 0.0088284778005 0.0082273838026 0.0074432453659 0.0065103397604 0.005467806498 0.0043561535395 0.0032137359005 0.0020735943087 
0.0042760735636 0.0033004835042 0.0024854118095 0.0018034562832 0.0012259239358 0.00072565911825 0.00027868595648 -0.00013497229348 -0.00053101143508 
-0.00092089139513 -0.0013120637297 -0.0017082884788 -0.002109983286 -0.0025145728608 -0.0029168252921 -0.0033091750736 -0.003682041165 -0.004024152656 
-0.0043228961408 -0.0045646986397 -0.0047354582154 -0.0048210316656 -0.004807784432 -0.0046832013513 -0.0044365472009 -0.0040595527803 -0.0035471020588 
-0.002888954689 -0.0020969494759 -0.0011799776499 -0.0001532654784 0.00096130565762 0.0021352296324 0.0033338019799 0.0045170233975 0.0056410410615 
0.0066601456585 0.0075292800063 0.0082069356896 0.0086582240007 0.0088578201691 0.0087924154866 0.0084622945966 0.0078817067462 0.0070778305034 
0.0060883307141 0.0049577377704 0.0037330850577 0.0024593596836 0.0011753150349 0.0029733675912 0.0019809067272 0.0011503751318 0.0004528479674 
-0.00014195354241 -0.00066264300906 -0.0011344266522 -0.001578246751 -0.0020104996307 -0.0024430996037 -0.00288373199 -0.003336193251 -0.003800755858 
-0.004274524264 -0.0047517691355 -0.0052242410302 -0.005681473001 -0.0061110860979 -0.0064991141572 -0.0068303650877 -0.0070888352291 -0.0072581914488 
-0.0073223324726 -0.0072660374506 -0.0070757094833 -0.0067402378196 -0.006252085458 -0.0055946232642 -0.0047777026469 -0.0038073236986 -0.0026968821431 
-0.0014675145654 -0.00014830329153 0.0012239041769 0.002605207668 0.0039460059652 0.0051930505258 0.0062921977776 0.0071917632094 0.0078462643842 
0.0082202145382 0.0082915177523 0.0080539541689 0.0075182652581 0.00671148064 0.0056743698145 0.0044572164189 0.0031144231869 0.0016986680906 
0.00025537109038 0.0014804752314 0.0004773963371 -0.00036410577058 -0.0010741778993 -0.0016844224966 -0.0022247124773 -0.0027213525164 -0.0031961761849 
-0.0036662503343 -0.0041439454019 -0.0046372042076 -0.0051498986216 -0.005682205967 -0.0062309686674 -0.0067900232644 -0.0073504998032 -0.007901101683 
-0.0084283817981 -0.008917034481 -0.0093502245235 -0.009709974555 -0.0099776305404 -0.010134422339 -0.010162132878 -0.010043886408 -0.0097650629399 
-0.0093143258314 -0.0086735942872 -0.0078442080257 -0.0068293770438 -0.005639999346 -0.0042956410699 -0.0028251612613 -0.0012668861495 0.00033180993577 
0.0019156618367 0.0034235254702 0.0047912978961 0.0059556966346 0.00685870802 0.00745234564 0.0077031902346 0.0075960546057 0.007136084471 
0.0063487176391 0.0052772003904 0.0039777702115 0.0025130639245 0.00094466127947 -0.00067420434486 -0.00020347807769 -0.0012110358656 -0.002059061255 
-0.0027785958962 -0.0034023030072 -0.0039611230271 -0.0044823336347 -0.0049885893186 -0.005497601142 -0.0060222048416 -0.0065706389278 -0.0071469126491 
-0.0077511890984 -0.008380143221 -0.0090272790442 -0.009683206752 -0.010335890801 -0.010970887417 -0.011571594418 -0.012119538554 -0.012594725887 
-0.012976079452 -0.013241985919 -0.013370969196 -0.013342503427 -0.013137970335 -0.012741766307 -0.012135718898 -0.011309406622 -0.010262898672 
-0.0090034912167 -0.0075481042023 -0.0059243317859 -0.0041710425431 -0.0023383573094 -0.00048681024216 0.0013144901669 0.0029908303111 0.0044660161885 
0.005667516502 0.0065322729327 0.0070125859613 0.0070812682378 0.0067351382787 0.005995985171 0.0049084251008 0.0035345823797 0.00194615547 
0.00021498020728 -0.0015965344946 -0.0020773035531 -0.0030834199382 -0.0039336403053 -0.0046595567451 -0.005294611927 -0.0058706047203 -0.00641564824 
-0.0069531457168 -0.0075014378346 -0.0080738599336 -0.0086790199942 -0.0093211682217 -0.010000577394 -0.01071389012 -0.011454415566 -0.012212376053 
-0.012975116009 -0.013727293935 -0.014451083193 -0.01512640994 -0.01573125729 -0.016242064102 -0.016634244945 -0.016882854141 -0.016963408484 
-0.016852860247 -0.016530634264 -0.015979329377 -0.015175117477 -0.014113743089 -0.012797674745 -0.01123994122 -0.0094656123973 -0.0075128859761 
-0.0054335681506 -0.0032926943976 -0.0011670274758 0.00085779438748 0.0026915885955 0.0042453933906 0.0054383657233 0.0062051909947 0.0065030548406 
0.0063169808911 0.0056622937895 0.0045832300507 0.0031473232083 0.0014360329136 -0.00046708026195 -0.0024888388937 -0.0041377124504 -0.0051369017196 
-0.0059852768815 -0.0067145894726 -0.00735873566 -0.0079501361875 -0.0085175977429 -0.0090852194179 -0.0096719950149 -0.010291842926 -0.010953866695 
-0.011662710452 -0.012418923503 -0.013219286751 -0.014057081326 -0.014922299076 -0.015801807917 -0.016679494063 -0.017536408818 -0.018350950593 
-0.019099114309 -0.019754840654 -0.020290497249 -0.020677522618 -0.020887261981 -0.020892024539 -0.020666414513 -0.020189133035 -0.01942951878 
-0.018374115601 -0.017019337582 -0.015373002572 -0.013456234046 -0.011305091177 -0.0089716608219 -0.0065242934651 -0.0040466325302 -0.0016350960848 
0.00060545338415 0.0025679434357 0.0041510350191 0.0052681800473 0.0058567356427 0.005885658162 0.005360086748 0.0043212957469 0.0028411555867 
0.0010113269058 -0.0010713790544 -0.0033211879694 -0.0063794449488 -0.0073669557434 -0.008209924642 -0.0089397997169 -0.0095905585939 -0.01019499677 
-0.010782495788 -0.011377845739 -0.01200077816 -0.012665941404 -0.013383119085 -0.014157551991 -0.014990273311 -0.015878405517 -0.016815395725 
-0.017791187103 -0.018792338553 -0.019802114957 -0.020800576618 -0.021764700345 -0.022668566928 -0.023483651093 -0.024179250894 -0.024723094 
-0.025082159054 -0.025223755189 -0.025116929989 -0.024734402065 -0.02404516647 -0.023020223462 -0.021649029215 -0.01993290042 -0.01788750099 
-0.015545075477 -0.012956259465 -0.010191092868 -0.0073387972675 -0.004505852567 -0.0018119468617 0.00061647895309 0.0026550719056 0.0041923040263 