# vtk DataFile Version 4.1
vtk output
ASCII
DATASET STRUCTURED_GRID
DIMENSIONS 51 51 1
POINTS 2601 float
0 0 0 0.02 0 0 0.04 0 0 
0.06 0 0 0.08 0 0 0.1 0 0 
0.12 0 0 0.14 0 0 0.16 0 0 
0.18 0 0 0.2 0 0 0.22 0 0 
0.24 0 0 0.26 0 0 0.28 0 0 
0.3 0 0 0.32 0 0 0.34 0 0 
0.36 0 0 0.38 0 0 0.4 0 0 
0.42 0 0 0.44 0 0 0.46 0 0 
0.48 0 0 0.5 0 0 0.52 0 0 
0.54 0 0 0.56 0 0 0.58 0 0 
0.6 0 0 0.62 0 0 0.64 0 0 
0.66 0 0 0.68 0 0 0.7 0 0 
0.72 0 0 0.74 0 0 0.76 0 0 
0.78 0 0 0.8 0 0 0.82 0 0 
0.84 0 0 0.86 0 0 0.88 0 0 
0.9 0 0 0.92 0 0 0.94 0 0 
0.96 0 0 0.98 0 0 1 0 0 
0 0.02 0 0.02 0.02 0 0.04 0.02 0 
0.06 0.02 0 0.08 0.02 0 0.1 0.02 0 
0.12 0.02 0 0.14 0.02 0 0.16 0.02 0 
0.18 0.02 0 0.2 0.02 0 0.22 0.02 0 
0.24 0.02 0 0.26 0.02 0 0.28 0.02 0 
0.3 0.02 0 0.32 0.02 0 0.34 0.02 0 
0.36 0.02 0 0.38 0.02 0 0.4 0.02 0 
0.42 0.02 0 0.44 0.02 0 0.46 0.02 0 
0.48 0.02 0 0.5 0.02 0 0.52 0.02 0 
0.54 0.02 0 0.56 0.02 0 0.58 0.02 0 
0.6 0.02 0 0.62 0.02 0 0.64 0.02 0 
0.66 0.02 0 0.68 0.02 0 0.7 0.02 0 
0.72 0.02 0 0.74 0.02 0 0.76 0.02 0 
0.78 0.02 0 0.8 0.02 0 0.82 0.02 0 
0.84 0.02 0 0.86 0.02 0 0.88 0.02 0 
0.9 0.02 0 0.92 0.02 0 0.94 0.02 0 
0.96 0.02 0 0.98 0.02 0 1 0.02 0 
0 0.04 0 0.02 0.04 0 0.04 0.04 0 
0.06 0.04 0 0.08 0.04 0 0.1 0.04 0 
0.12 0.04 0 0.14 0.04 0 0.16 0.04 0 
0.18 0.04 0 0.2 0.04 0 0.22 0.04 0 
0.24 0.04 0 0.26 0.04 0 0.28 0.04 0 
0.3 0.04 0 0.32 0.04 0 0.34 0.04 0 
0.36 0.04 0 0.38 0.04 0 0.4 0.04 0 
0.42 0.04 0 0.44 0.04 0 0.46 0.04 0 
0.48 0.04 0 0.5 0.04 0 0.52 0.04 0 
0.54 0.04 0 0.56 0.04 0 0.58 0.04 0 
0.6 0.04 0 0.62 0.04 0 0.64 0.04 0 
0.66 0.04 0 0.68 0.04 0 0.7 0.04 0 
0.72 0.04 0 0.74 0.04 0 0.76 0.04 0 
0.78 0.04 0 0.8 0.04 0 0.82 0.04 0 
0.84 0.04 0 0.86 0.04 0 0.88 0.04 0 
0.9 0.04 0 0.92 0.04 0 0.94 0.04 0 
0.96 0.04 0 0.98 0.04 0 1 0.04 0 
0 0.06 0 0.02 0.06 0 0.04 0.06 0 
0.06 0.06 0 0.08 0.06 0 0.1 0.06 0 
0.12 0.06 0 0.14 0.06 0 0.16 0.06 0 
0.18 0.06 0 0.2 0.06 0 0.22 0.06 0 
0.24 0.06 0 0.26 0.06 0 0.28 0.06 0 
0.3 0.06 0 0.32 0.06 0 0.34 0.06 0 
0.36 0.06 0 0.38 0.06 0 0.4 0.06 0 
0.42 0.06 0 0.44 0.06 0 0.46 0.06 0 
0.48 0.06 0 0.5 0.06 0 0.52 0.06 0 
0.54 0.06 0 0.56 0.06 0 0.58 0.06 0 
0.6 0.06 0 0.62 0.06 0 0.64 0.06 0 
0.66 0.06 0 0.68 0.06 0 0.7 0.06 0 
0.72 0.06 0 0.74 0.06 0 0.76 0.06 0 
0.78 0.06 0 0.8 0.06 0 0.82 0.06 0 
0.84 0.06 0 0.86 0.06 0 0.88 0.06 0 
0.9 0.06 0 0.92 0.06 0 0.94 0.06 0 
0.96 0.06 0 0.98 0.06 0 1 0.06 0 
0 0.08 0 0.02 0.08 0 0.04 0.08 0 
0.06 0.08 0 0.08 0.08 0 0.1 0.08 0 
0.12 0.08 0 0.14 0.08 0 0.16 0.08 0 
0.18 0.08 0 0.2 0.08 0 0.22 0.08 0 
0.24 0.08 0 0.26 0.08 0 0.28 0.08 0 
0.3 0.08 0 0.32 0.08 0 0.34 0.08 0 
0.36 0.08 0 0.38 0.08 0 0.4 0.08 0 
0.42 0.08 0 0.44 0.08 0 0.46 0.08 0 
0.48 0.08 0 0.5 0.08 0 0.52 0.08 0 
0.54 0.08 0 0.56 0.08 0 0.58 0.08 0 
0.6 0.08 0 0.62 0.08 0 0.64 0.08 0 
0.66 0.08 0 0.68 0.08 0 0.7 0.08 0 
0.72 0.08 0 0.74 0.08 0 0.76 0.08 0 
0.78 0.08 0 0.8 0.08 0 0.82 0.08 0 
0.84 0.08 0 0.86 0.08 0 0.88 0.08 0 
0.9 0.08 0 0.92 0.08 0 0.94 0.08 0 
0.96 0.08 0 0.98 0.08 0 1 0.08 0 
0 0.1 0 0.02 0.1 0 0.04 0.1 0 
0.06 0.1 0 0.08 0.1 0 0.1 0.1 0 
0.12 0.1 0 0.14 0.1 0 0.16 0.1 0 
0.18 0.1 0 0.2 0.1 0 0.22 0.1 0 
0.24 0.1 0 0.26 0.1 0 0.28 0.1 0 
0.3 0.1 0 0.32 0.1 0 0.34 0.1 0 
0.36 0.1 0 0.38 0.1 0 0.4 0.1 0 
0.42 0.1 0 0.44 0.1 0 0.46 0.1 0 
0.48 0.1 0 0.5 0.1 0 0.52 0.1 0 
0.54 0.1 0 0.56 0.1 0 0.58 0.1 0 
0.6 0.1 0 0.62 0.1 0 0.64 0.1 0 
0.66 0.1 0 0.68 0.1 0 0.7 0.1 0 
0.72 0.1 0 0.74 0.1 0 0.76 0.1 0 
0.78 0.1 0 0.8 0.1 0 0.82 0.1 0 
0.84 0.1 0 0.86 0.1 0 0.88 0.1 0 
0.9 0.1 0 0.92 0.1 0 0.94 0.1 0 
0.96 0.1 0 0.98 0.1 0 1 0.1 0 
0 0.12 0 0.02 0.12 0 0.04 0.12 0 
0.06 0.12 0 0.08 0.12 0 0.1 0.12 0 
0.12 0.12 0 0.14 0.12 0 0.16 0.12 0 
0.18 0.12 0 0.2 0.12 0 0.22 0.12 0 
0.24 0.12 0 0.26 0.12 0 0.28 0.12 0 
0.3 0.12 0 0.32 0.12 0 0.34 0.12 0 
0.36 0.12 0 0.38 0.12 0 0.4 0.12 0 
0.42 0.12 0 0.44 0.12 0 0.46 0.12 0 
0.48 0.12 0 0.5 0.12 0 0.52 0.12 0 
0.54 0.12 0 0.56 0.12 0 0.58 0.12 0 
0.6 0.12 0 0.62 0.12 0 0.64 0.12 0 
0.66 0.12 0 0.68 0.12 0 0.7 0.12 0 
0.72 0.12 0 0.74 0.12 0 0.76 0.12 0 
0.78 0.12 0 0.8 0.12 0 0.82 0.12 0 
0.84 0.12 0 0.86 0.12 0 0.88 0.12 0 
0.9 0.12 0 0.92 0.12 0 0.94 0.12 0 
0.96 0.12 0 0.98 0.12 0 1 0.12 0 
0 0.14 0 0.02 0.14 0 0.04 0.14 0 
0.06 0.14 0 0.08 0.14 0 0.1 0.14 0 
0.12 0.14 0 0.14 0.14 0 0.16 0.14 0 
0.18 0.14 0 0.2 0.14 0 0.22 0.14 0 
0.24 0.14 0 0.26 0.14 0 0.28 0.14 0 
0.3 0.14 0 0.32 0.14 0 0.34 0.14 0 
0.36 0.14 0 0.38 0.14 0 0.4 0.14 0 
0.42 0.14 0 0.44 0.14 0 0.46 0.14 0 
0.48 0.14 0 0.5 0.14 0 0.52 0.14 0 
0.54 0.14 0 0.56 0.14 0 0.58 0.14 0 
0.6 0.14 0 0.62 0.14 0 0.64 0.14 0 
0.66 0.14 0 0.68 0.14 0 0.7 0.14 0 
0.72 0.14 0 0.74 0.14 0 0.76 0.14 0 
0.78 0.14 0 0.8 0.14 0 0.82 0.14 0 
0.84 0.14 0 0.86 0.14 0 0.88 0.14 0 
0.9 0.14 0 0.92 0.14 0 0.94 0.14 0 
0.96 0.14 0 0.98 0.14 0 1 0.14 0 
0 0.16 0 0.02 0.16 0 0.04 0.16 0 
0.06 0.16 0 0.08 0.16 0 0.1 0.16 0 
0.12 0.16 0 0.14 0.16 0 0.16 0.16 0 
0.18 0.16 0 0.2 0.16 0 0.22 0.16 0 
0.24 0.16 0 0.26 0.16 0 0.28 0.16 0 
0.3 0.16 0 0.32 0.16 0 0.34 0.16 0 
0.36 0.16 0 0.38 0.16 0 0.4 0.16 0 
0.42 0.16 0 0.44 0.16 0 0.46 0.16 0 
0.48 0.16 0 0.5 0.16 0 0.52 0.16 0 
0.54 0.16 0 0.56 0.16 0 0.58 0.16 0 
0.6 0.16 0 0.62 0.16 0 0.64 0.16 0 
0.66 0.16 0 0.68 0.16 0 0.7 0.16 0 
0.72 0.16 0 0.74 0.16 0 0.76 0.16 0 
0.78 0.16 0 0.8 0.16 0 0.82 0.16 0 
0.84 0.16 0 0.86 0.16 0 0.88 0.16 0 
0.9 0.16 0 0.92 0.16 0 0.94 0.16 0 
0.96 0.16 0 0.98 0.16 0 1 0.16 0 
0 0.18 0 0.02 0.18 0 0.04 0.18 0 
0.06 0.18 0 0.08 0.18 0 0.1 0.18 0 
0.12 0.18 0 0.14 0.18 0 0.16 0.18 0 
0.18 0.18 0 0.2 0.18 0 0.22 0.18 0 
0.24 0.18 0 0.26 0.18 0 0.28 0.18 0 
0.3 0.18 0 0.32 0.18 0 0.34 0.18 0 
0.36 0.18 0 0.38 0.18 0 0.4 0.18 0 
0.42 0.18 0 0.44 0.18 0 0.46 0.18 0 
0.48 0.18 0 0.5 0.18 0 0.52 0.18 0 
0.54 0.18 0 0.56 0.18 0 0.58 0.18 0 
0.6 0.18 0 0.62 0.18 0 0.64 0.18 0 
0.66 0.18 0 0.68 0.18 0 0.7 0.18 0 
0.72 0.18 0 0.74 0.18 0 0.76 0.18 0 
0.78 0.18 0 0.8 0.18 0 0.82 0.18 0 
0.84 0.18 0 0.86 0.18 0 0.88 0.18 0 
0.9 0.18 0 0.92 0.18 0 0.94 0.18 0 
0.96 0.18 0 0.98 0.18 0 1 0.18 0 
0 0.2 0 0.02 0.2 0 0.04 0.2 0 
0.06 0.2 0 0.08 0.2 0 0.1 0.2 0 
0.12 0.2 0 0.14 0.2 0 0.16 0.2 0 
0.18 0.2 0 0.2 0.2 0 0.22 0.2 0 
0.24 0.2 0 0.26 0.2 0 0.28 0.2 0 
0.3 0.2 0 0.32 0.2 0 0.34 0.2 0 
0.36 0.2 0 0.38 0.2 0 0.4 0.2 0 
0.42 0.2 0 0.44 0.2 0 0.46 0.2 0 
0.48 0.2 0 0.5 0.2 0 0.52 0.2 0 
0.54 0.2 0 0.56 0.2 0 0.58 0.2 0 
0.6 0.2 0 0.62 0.2 0 0.64 0.2 0 
0.66 0.2 0 0.68 0.2 0 0.7 0.2 0 
0.72 0.2 0 0.74 0.2 0 0.76 0.2 0 
0.78 0.2 0 0.8 0.2 0 0.82 0.2 0 
0.84 0.2 0 0.86 0.2 0 0.88 0.2 0 
0.9 0.2 0 0.92 0.2 0 0.94 0.2 0 
0.96 0.2 0 0.98 0.2 0 1 0.2 0 
0 0.22 0 0.02 0.22 0 0.04 0.22 0 
0.06 0.22 0 0.08 0.22 0 0.1 0.22 0 
0.12 0.22 0 0.14 0.22 0 0.16 0.22 0 
0.18 0.22 0 0.2 0.22 0 0.22 0.22 0 
0.24 0.22 0 0.26 0.22 0 0.28 0.22 0 
0.3 0.22 0 0.32 0.22 0 0.34 0.22 0 
0.36 0.22 0 0.38 0.22 0 0.4 0.22 0 
0.42 0.22 0 0.44 0.22 0 0.46 0.22 0 
0.48 0.22 0 0.5 0.22 0 0.52 0.22 0 
0.54 0.22 0 0.56 0.22 0 0.58 0.22 0 
0.6 0.22 0 0.62 0.22 0 0.64 0.22 0 
0.66 0.22 0 0.68 0.22 0 0.7 0.22 0 
0.72 0.22 0 0.74 0.22 0 0.76 0.22 0 
0.78 0.22 0 0.8 0.22 0 0.82 0.22 0 
0.84 0.22 0 0.86 0.22 0 0.88 0.22 0 
0.9 0.22 0 0.92 0.22 0 0.94 0.22 0 
0.96 0.22 0 0.98 0.22 0 1 0.22 0 
0 0.24 0 0.02 0.24 0 0.04 0.24 0 
0.06 0.24 0 0.08 0.24 0 0.1 0.24 0 
0.12 0.24 0 0.14 0.24 0 0.16 0.24 0 
0.18 0.24 0 0.2 0.24 0 0.22 0.24 0 
0.24 0.24 0 0.26 0.24 0 0.28 0.24 0 
0.3 0.24 0 0.32 0.24 0 0.34 0.24 0 
0.36 0.24 0 0.38 0.24 0 0.4 0.24 0 
0.42 0.24 0 0.44 0.24 0 0.46 0.24 0 
0.48 0.24 0 0.5 0.24 0 0.52 0.24 0 
0.54 0.24 0 0.56 0.24 0 0.58 0.24 0 
0.6 0.24 0 0.62 0.24 0 0.64 0.24 0 
0.66 0.24 0 0.68 0.24 0 0.7 0.24 0 
0.72 0.24 0 0.74 0.24 0 0.76 0.24 0 
0.78 0.24 0 0.8 0.24 0 0.82 0.24 0 
0.84 0.24 0 0.86 0.24 0 0.88 0.24 0 
0.9 0.24 0 0.92 0.24 0 0.94 0.24 0 
0.96 0.24 0 0.98 0.24 0 1 0.24 0 
0 0.26 0 0.02 0.26 0 0.04 0.26 0 
0.06 0.26 0 0.08 0.26 0 0.1 0.26 0 
0.12 0.26 0 0.14 0.26 0 0.16 0.26 0 
0.18 0.26 0 0.2 0.26 0 0.22 0.26 0 
0.24 0.26 0 0.26 0.26 0 0.28 0.26 0 
0.3 0.26 0 0.32 0.26 0 0.34 0.26 0 
0.36 0.26 0 0.38 0.26 0 0.4 0.26 0 
0.42 0.26 0 0.44 0.26 0 0.46 0.26 0 
0.48 0.26 0 0.5 0.26 0 0.52 0.26 0 
0.54 0.26 0 0.56 0.26 0 0.58 0.26 0 
0.6 0.26 0 0.62 0.26 0 0.64 0.26 0 
0.66 0.26 0 0.68 0.26 0 0.7 0.26 0 
0.72 0.26 0 0.74 0.26 0 0.76 0.26 0 
0.78 0.26 0 0.8 0.26 0 0.82 0.26 0 
0.84 0.26 0 0.86 0.26 0 0.88 0.26 0 
0.9 0.26 0 0.92 0.26 0 0.94 0.26 0 
0.96 0.26 0 0.98 0.26 0 1 0.26 0 
0 0.28 0 0.02 0.28 0 0.04 0.28 0 
0.06 0.28 0 0.08 0.28 0 0.1 0.28 0 
0.12 0.28 0 0.14 0.28 0 0.16 0.28 0 
0.18 0.28 0 0.2 0.28 0 0.22 0.28 0 
0.24 0.28 0 0.26 0.28 0 0.28 0.28 0 
0.3 0.28 0 0.32 0.28 0 0.34 0.28 0 
0.36 0.28 0 0.38 0.28 0 0.4 0.28 0 
0.42 0.28 0 0.44 0.28 0 0.46 0.28 0 
0.48 0.28 0 0.5 0.28 0 0.52 0.28 0 
0.54 0.28 0 0.56 0.28 0 0.58 0.28 0 
0.6 0.28 0 0.62 0.28 0 0.64 0.28 0 
0.66 0.28 0 0.68 0.28 0 0.7 0.28 0 
0.72 0.28 0 0.74 0.28 0 0.76 0.28 0 
0.78 0.28 0 0.8 0.28 0 0.82 0.28 0 
0.84 0.28 0 0.86 0.28 0 0.88 0.28 0 
0.9 0.28 0 0.92 0.28 0 0.94 0.28 0 
0.96 0.28 0 0.98 0.28 0 1 0.28 0 
0 0.3 0 0.02 0.3 0 0.04 0.3 0 
0.06 0.3 0 0.08 0.3 0 0.1 0.3 0 
0.12 0.3 0 0.14 0.3 0 0.16 0.3 0 
0.18 0.3 0 0.2 0.3 0 0.22 0.3 0 
0.24 0.3 0 0.26 0.3 0 0.28 0.3 0 
0.3 0.3 0 0.32 0.3 0 0.34 0.3 0 
0.36 0.3 0 0.38 0.3 0 0.4 0.3 0 
0.42 0.3 0 0.44 0.3 0 0.46 0.3 0 
0.48 0.3 0 0.5 0.3 0 0.52 0.3 0 
0.54 0.3 0 0.56 0.3 0 0.58 0.3 0 
0.6 0.3 0 0.62 0.3 0 0.64 0.3 0 
0.66 0.3 0 0.68 0.3 0 0.7 0.3 0 
0.72 0.3 0 0.74 0.3 0 0.76 0.3 0 
0.78 0.3 0 0.8 0.3 0 0.82 0.3 0 
0.84 0.3 0 0.86 0.3 0 0.88 0.3 0 
0.9 0.3 0 0.92 0.3 0 0.94 0.3 0 
0.96 0.3 0 0.98 0.3 0 1 0.3 0 
0 0.32 0 0.02 0.32 0 0.04 0.32 0 
0.06 0.32 0 0.08 0.32 0 0.1 0.32 0 
0.12 0.32 0 0.14 0.32 0 0.16 0.32 0 
0.18 0.32 0 0.2 0.32 0 0.22 0.32 0 
0.24 0.32 0 0.26 0.32 0 0.28 0.32 0 
0.3 0.32 0 0.32 0.32 0 0.34 0.32 0 
0.36 0.32 0 0.38 0.32 0 0.4 0.32 0 
0.42 0.32 0 0.44 0.32 0 0.46 0.32 0 
0.48 0.32 0 0.5 0.32 0 0.52 0.32 0 
0.54 0.32 0 0.56 0.32 0 0.58 0.32 0 
[...]
CELL_DATA 2500
FIELD FieldData 1
pressure 1 2500 double
0.0061822058818 0.0061125430173 0.0059230349917 0.0056504902513 0.0053327325658 0.005002601945 0.0046865790092 0.0044041029111 0.0041678355856 
0.0039852022126 0.0038605004762 0.0037965437491 0.0037953999605 0.0038585021457 0.0039866162497 0.0041799081936 0.0044380599371 0.0047603013726 
0.0051453105422 0.0055910277411 0.0060944468842 0.006651417022 0.0072564624269 0.0079026280901 0.0085813614339 0.0092824337494 0.0099935324715 
0.010701433564 0.011392201112 0.012051305888 0.012664047729 0.013216077191 0.01369398649 0.014085937161 0.014382286201 0.014576170241 
0.014664010692 0.014645909811 0.014525914835 0.01431213581 0.014016715077 0.01365566302 0.013248590943 0.012818378432 0.012390807669 
0.01199406507 0.01165797825 0.011412089069 0.011280486025 0.011268076614 0.0062461222183 0.0061809671133 0.0060212534197 0.0057940405413 
0.0055286158397 0.0052523465773 0.0049873424511 0.0047493536349 0.0045488132542 0.0043927523927 0.0042862929535 0.0042332818132 0.0042364138202 
0.0042973319017 0.0044168743326 0.0045953431572 0.0048326338113 0.0051281958136 0.0054808954587 0.0058888525786 0.0063492778295 0.0068583112528 
0.0074108691382 0.0080005193866 0.0086194077348 0.0092582560218 0.0099054781167 0.010549097479 0.011176550382 0.011774760801 0.012330549567 
0.012831117351 0.013264583471 0.013620550568 0.013890660034 0.014069103908 0.014153063011 0.014143044632 0.014043096362 0.013860879969 
0.01360760158 0.013297808838 0.012949074745 0.012581584814 0.012217623842 0.011880906772 0.011595558492 0.011384540396 0.011267018067 
0.011255656705 0.0064411149062 0.0063469166079 0.0061826325262 0.0059698848489 0.005732330502 0.0054909607794 0.0052617393674 0.0050559757408 
0.0048819960389 0.0047464396066 0.0046546257981 0.0046104557603 0.0046164609021 0.004674156165 0.0047844625747 0.004947946094 0.0051648263567 
0.0054348610283 0.0057572087481 0.0061302992795 0.0065516970322 0.0070179541533 0.0075244731115 0.0080654052384 0.0086336039606 0.00922064733 
0.0098154502373 0.01040706096 0.010983955514 0.011534117176 0.012045433106 0.012506156218 0.012905413367 0.013233731282 0.013483549305 
0.01364968972 0.013729757588 0.013724441223 0.013637686799 0.013476729796 0.013251980019 0.012976769866 0.012666981012 0.012340562654 
0.012016945294 0.01171633454 0.011458843815 0.01126350244 0.011147363125 0.011125861044 0.0067284839518 0.0065786341863 0.0063862477705 
0.0061679046173 0.0059406520735 0.0057182036901 0.0055105806246 0.0053255262158 0.0051697306001 0.0050490238328 0.0049679875517 0.0049297651774 
0.0049363530143 0.0049891077803 0.0050891016249 0.0052371955388 0.0054339355476 0.0056794152082 0.0059731590381 0.0063140076534 0.0066999826556 
0.007128140751 0.007594443964 0.008093667334 0.008619355188 0.0091638353058 0.0097164155409 0.01026692922 0.010804590685 0.011318096567 
0.011796011859 0.012227219677 0.012601413075 0.012909602096 0.013144608712 0.013301521967 0.013378082276 0.013374961077 0.013295906557 
0.013147738634 0.012940191327 0.012685612229 0.012398534181 0.012095138496 0.01179263168 0.011508558644 0.011260086868 0.011063352484 
0.010933078586 0.010882911936 0.0070656716649 0.0068463746817 0.0066128462261 0.0063759490714 0.0061453739633 0.0059282455455 0.0057301184395 
0.0055561749806 0.0054114345345 0.0053002108166 0.0052256491293 0.0051898077788 0.0051941227963 0.0052398395205 0.0053281695745 0.0054602147295 
0.0056368161957 0.0058584257841 0.0061249970232 0.0064358614379 0.0067895804221 0.0071837919836 0.0076150765186 0.0080788563233 0.0085693370977 
0.0090795006143 0.0095989892487 0.010118179439 0.010626772123 0.011113884995 0.01156843127 0.011979563861 0.012337162748 0.012632340922 
0.01285794288 0.013009005333 0.013083143191 0.013080822214 0.013005487945 0.012863534881 0.012664114496 0.012418791284 0.01214106456 
0.011845784948 0.011548503796 0.011264800803 0.011009643532 0.010796847461 0.010638722308 0.010545924683 0.0074171299008 0.0071242571352 
0.0068433032079 0.0065788986154 0.006334240233 0.0061116849856 0.0059137653387 0.0057434610674 0.0056036942281 0.0054967393743 0.0054240860373 
0.0053867516181 0.0053856998374 0.0054220648998 0.0054971274356 0.0056121641448 0.005768294856 0.005966360272 0.0062068007494 0.0064895086934 
0.006813658169 0.0071775335826 0.0075783775087 0.0080122697444 0.008474046071 0.008957266219 0.0094518891992 0.0099485993012 0.010437380186 
0.010907527124 0.01134802171 0.01174797657 0.012097129213 0.012386362003 0.01260822084 0.012757396902 0.012831128436 0.012829480869 
0.012755474232 0.012615041136 0.012416812018 0.012171735805 0.011892558038 0.011593195075 0.011288054787 0.010991359959 0.01071652828 
0.010475649806 0.010279064992 0.010134926561 0.0077551809957 0.0073895310752 0.0070579687104 0.0067595574347 0.0064929546357 0.0062574487943 
0.0060531852534 0.0058807423856 0.0057405921324 0.0056328822632 0.0055575998529 0.0055148971088 0.0055053244823 0.0055298593135 0.0055897817226 
0.0056865089927 0.0058214516613 0.0059958835771 0.0062107927648 0.0064666993628 0.0067634537918 0.0071000380627 0.0074743882396 0.0078832485168 
0.0083220642672 0.0087849229238 0.0092621274113 0.0097444427423 0.010221973525 0.010683992319 0.011119312698 0.011516739517 0.01186557795 
0.012156178928 0.012380490279 0.012532572085 0.012609028584 0.012609312749 0.012535870595 0.012394104959 0.012192151534 0.011940474451 
0.011651308451 0.011337994453 0.011014267883 0.010693562303 0.010388381098 0.010109764327 0.0098668274313 0.0096662579919 0.0080574828282 
0.0076211766085 0.0072371053645 0.0069004245397 0.0066070363246 0.006353935684 0.0061387986586 0.0059595448019 0.0058142050871 0.0057010590404 
0.0056188707106 0.0055670719194 0.0055458094305 0.0055558583773 0.0055984682806 0.0056752073118 0.0057878201715 0.0059380742343 0.0061275695915 
0.0063575144797 0.0066284874629 0.0069402095204 0.0072913403433 0.0076793052137 0.0081001579052 0.008548489873 0.0090150270268 0.009490396298 
0.0099647016207 0.010427033745 0.010865841487 0.011269390051 0.011626291073 0.01192608171 0.012159818051 0.012320636401 0.012404231421 
0.012409204712 0.012337246443 0.012193123745 0.011984463522 0.011721336277 0.011415672089 0.011080561596 0.010729508241 0.010375700091 
0.010031356966 0.0097071794624 0.0094118778179 0.0091516903458 0.0083043055736 0.007799318425 0.0073619465272 0.0069850721331 0.0066626379206 
0.006389278839 0.0061599457619 0.0059699330308 0.0058151490235 0.005692365648 0.0055993505022 0.0055348901128 0.005498723799 0.0054914161806 
0.0055142092545 0.0055688767226 0.005657567277 0.0057826107166 0.0059462790508 0.0061505193605 0.0063966841717 0.0066852777498 0.0070157252542 
0.0073861670372 0.0077932850799 0.008232176823 0.0086941312976 0.0091694321901 0.0096481032802 0.010118934883 0.010569849963 0.01098837065 
0.011362172839 0.011679704923 0.011930832177 0.012107456807 0.012204060136 0.012218116516 0.012150334698 0.012004692413 0.011788245746 
0.011510718225 0.011183902463 0.010820930855 0.010435487269 0.010041034664 0.0096501212394 0.0092737985131 0.0089211390529 0.0085987852192 
0.0084771121661 0.0079054518001 0.0074154384618 0.0069984735953 0.0066464142463 0.0063512038171 0.0061050523262 0.0059009471395 0.005733070585 
0.0055969646792 0.0054895272302 0.0054089379358 0.0053545499495 0.0053267616829 0.0053268809338 0.005356973566 0.0054196726858 0.0055179349762 
0.0056547558941 0.0058328697842 0.0060544563764 0.00632086204 0.006632336161 0.0069877860159 0.0073845633196 0.0078183028206 0.0082810685316 
0.0087626195165 0.0092528634214 0.0097402104387 0.010211929045 0.010654619333 0.011054793464 0.011399537686 0.01167721504 0.011878157222 
0.011995289796 0.012024634697 0.011965636764 0.011821270396 0.011597900326 0.011304897147 0.010954038704 0.010558755008 0.010133293138 
0.0096918846827 0.0092479879122 0.0088136487469 0.0083989810992 0.0080117165944 0.0085584039937 0.0079227781791 0.0073822329646 0.0069265792422 
0.0065451314874 0.0062270166298 0.0059619699872 0.0057410610103 0.0055570367428 0.0054043586799 0.0052791205398 0.0051789420758 0.0051028558505 
0.00505118653 0.0050254127576 0.0050279881792 0.0050621038911 0.0051313988496 0.0052396431349 0.0053904174618 0.005586798697 0.0058310508707 
0.0061243220443 0.0064663570251 0.0068552455779 0.007287228059 0.0077554335267 0.0082489500383 0.0087575765536 0.0092693030845 0.0097706491986 
0.010247140364 0.010683911884 0.011066414342 0.011381180173 0.011616600302 0.011763652594 0.011816518677 0.011773025163 0.011634853957 
0.011407485323 0.01109986607 0.010723827934 0.010293311851 0.0098234777551 0.0093297906687 0.0088271671289 0.00832923999 0.0078477578995 
0.0073920877005 0.0085320570787 0.0078361854968 0.0072482135707 0.0067558422769 0.0063455745353 0.0060038954612 0.0057184189047 0.0054785739665 
0.0052758169795 0.0051035998171 0.004957271876 0.0048339726196 0.0047325195003 0.0046532818533 0.0045980179983 0.0045696531036 0.0045719973423 
0.0046094261469 0.0046865468418 0.0048078626836 0.0049774332813 0.0051985294529 0.0054732887763 0.0058023881845 0.006184755881 0.0066173457696 
0.0070947291162 0.0076052154589 0.0081385508165 0.0086823119082 0.009222216974 0.0097425972229 0.01022701676 0.010659017737 0.011022954445 
0.011304867331 0.011493335687 0.011580237087 0.011561337712 0.011436644664 0.011210469687 0.01089118288 0.010490670108 0.010023543771 
0.0095061877216 0.0089557356223 0.0083890811498 0.007821996441 0.0072683955257 0.0067397324617 0.0083835051812 0.007631933147 0.007000078617 
0.0064731221361 0.0060348199952 0.0056693198773 0.0053623715872 0.0051018908778 0.0048781017348 0.0046835039814 0.0045127857407 0.0043627151936 
0.0042320171025 0.0041212203929 0.0040324534853 0.0039691787145 0.0039358813103 0.0039377363482 0.0039802657925 0.0040689843748 0.0042090304139 
0.0044047843181 0.0046594861002 0.0049748691839 0.0053508303329 0.0057851566706 0.0062744033502 0.0068059723946 0.0073696947638 0.0079528013515 
0.008540208837 0.0091149758265 0.0096589262747 0.010153426807 0.010580289379 0.010922753417 0.011166483312 0.011300500975 0.011317965087 
0.011216711681 0.010999485923 0.010673823145 0.010251574711 0.0097481169053 0.0091813217412 0.0085703972009 0.0079347128137 0.007292711198 
0.0066609698386 0.0060534307526 0.0080996273929 0.0072973445868 0.0066252513803 0.0060659223672 0.0056006255035 0.0052114199882 0.0048823077419 
0.0045997318566 0.0043527287483 0.0041329230248 0.0039344453133 0.003753809398 0.0035897592639 0.0034430739903 0.0033163183214 0.0032135462832 
0.0031399777206 0.0031016602913 0.0031051156348 0.0031569640739 0.0032635275302 0.0034304172122 0.0036621168748 0.0039615751402 0.0043298235087 
0.004765640464 0.0052680475229 0.00582364684 0.0064225450751 0.0070517516838 0.0076954402393 0.0083353697982 0.0089514921807 0.0095227484773 
0.010028036348 0.010447306802 0.01076272506 0.010959808311 0.011028439048 0.010963648697 0.010766075715 0.010442027633 0.010003116024 
0.0094654837431 0.008848696203 0.0081744111676 0.0074649638775 0.0067419998343 0.0060252569023 0.0053315520895 0.0076685326692 0.0068207033533 
0.0061120481405 0.0055227056632 0.0050317170258 0.0046191837234 0.004267394203 0.0039613495627 0.0036889643777 0.0034410818557 0.0032113807205 
0.0029962222752 0.002794453976 0.0026071669353 0.0024374110673 0.0022898832286 0.0021706003673 0.0020865565217 0.0020453562697 0.0020548214385 
0.0021225737313 0.0022555981257 0.0024597928514 0.0027395149624 0.0030971369766 0.0035326446176 0.0040477217383 0.0046288181196 0.0052664952055 
0.0059477127189 0.0066560287895 0.0073719442147 0.008073462732 0.0087368856925 0.0093378325188 0.0098524521471 0.010258761961 0.010538022754 
0.010676035448 0.010664231175 0.010500426717 0.010189136992 0.009741376256 0.0091739378492 0.0085082088605 0.0077686378707 0.0069810166751 
0.0061707491743 0.005361259618 0.0045726466314 0.0070794482705 0.006191343491 0.0054499124662 0.0048331170531 0.0043179459274 0.0038825975546 
0.0035076746334 0.0031767932392 0.0028768308099 0.0025979435829 0.0023334484953 0.0020796291818 0.0018354908788 0.001602476587 0.0013841599805 
0.0011859274798 0.0010146491986 0.0008783299222 0.0007857337889 0.000745981968 0.00076812367376 0.00086067952132 0.0010311580327 0.0012855510604 
0.0016278157483 0.0020593409929 0.0025844304735 0.0031907401982 0.0038692874342 0.0046072214496 0.0053877130588 0.0061901419109 0.0069905699157 
0.007762505648 0.0084779576697 0.0091087519028 0.0096280565887 0.010012023266 0.010241418043 0.010303089629 0.010191107773 0.0099074155837 
0.0094618764613 0.0088716610294 0.0081600023303 0.00735443468 0.0064847030305 0.0055805675579 0.0046697227999 0.0037760062987 0.0063227755134 
0.0053998306968 0.0046296041091 0.0039881148449 0.0034504006608 0.0029928026738 0.002594297232 0.0022371983298 0.0019074358367 0.0015945616551 
0.0012915982813 0.00099479892791 0.00070335695188 0.00041909141211 0.00014612736064 -0.00010942550266 -0.00033980434754 -0.00053594419067 -0.00068785251419 
-0.00078501066886 -0.00081680832587 -0.0007730172332 -0.00064430414127 -0.00042277540853 -0.000102546851 0.00031964029188 0.00084874172362 0.0014781976478 
0.0021978412998 0.0029955468404 0.003854492901 0.0047532034915 0.005665915957 0.006563284707 0.0074134372564 0.0081833768761 0.0088406906306 
0.0093554777124 0.0097023648222 0.0098624300261 0.0098248252051 0.0095878810966 0.0091595080222 0.0085567730618 0.0078046354659 0.0069339410473 
0.0059788872452 0.0049742461198 0.0039526518329 0.0029422189275 0.0053902651995 0.0044381553705 0.0036433400731 0.0029800769782 0.002421536271 
0.0019422794424 0.0015197510342 0.001135059937 0.00077327367654 0.00042340675047 7.8232154776e-05 -0.00026600331279 -0.00060990693619 -0.00095127544689 
-0.0012854228875 -0.0016055045608 -0.00190284714 -0.0021672923163 -0.0023875601495 -0.0025516423774 -0.0026472385093 -0.0026622424052 -0.0025852769262 
-0.0024062650114 -0.0021170114703 -0.0017117172556 -0.0011871292717 -0.00053902416617 0.00021949537505 0.0010778144067 0.0020196512099 0.0030230711771 
0.0040607377804 0.0051005145383 0.0061064784234 0.0070403705978 0.0078634686471 0.0085388106259 0.0090336371722 0.0093218513881 0.0093862401074 
0.0092201702525 0.008828486112 0.0082273980567 0.0074432717166 0.0065103834901 0.005467871847 0.0043562436193 0.0032138526941 0.0020737389047 
0.0042752410923 0.0032999093031 0.002484917251 0.0018029156131 0.001225317798 0.00072502665105 0.00027807560703 -0.00013552859432 -0.0005315026199 
-0.00092131826501 -0.0013124277861 -0.0017085875564 -0.0021102137764 -0.0025147322712 -0.002916912103 -0.0033091883428 -0.0036819821347 -0.0040240263545 
-0.0043227097732 -0.004564457658 -0.0047351644965 -0.0048206859472 -0.0048073900795 -0.0046827655208 -0.0044360792688 -0.0040590626768 -0.0035465999881 
-0.0028884500435 -0.0020964522874 -0.001179496406 -0.00015280736922 0.00096173394655 0.0021356215891 0.0033341519749 0.0045173278491 0.0056412991085 
0.0066603589763 0.0075294521264 0.0082070714313 0.0086583292482 0.0088579017791 0.0087924811199 0.0084623524292 0.0078817650139 0.0070778969992 
0.0060884123351 0.0049578401467 0.0037332123795 0.002459514739 0.0011754995633 0.0029728181181 0.0019804354933 0.0011498206681 0.0004521846891 
-0.00014265436844 -0.00066329108139 -0.0011349641866 -0.0015786640087 -0.0020108222572 -0.0024433632449 -0.0028839615764 -0.0033363955797 -0.0038009222847 
-0.0042746371014 -0.0047518090723 -0.0052241946305 -0.0056813373395 -0.0061108672699 -0.0064988209614 -0.0068300037939 -0.0070884097272 -0.0072577068132 
-0.0073217968903 -0.007265460868 -0.0070751015635 -0.0067396075172 -0.0062514415761 -0.0055939759716 -0.0047770616067 -0.0038066983462 -0.0026962816904 
-0.0014669480049 -0.00014777874723 0.0012243805138 0.0026056322171 0.0039463776551 0.0051933702155 0.0062924677772 0.0071919872555 0.007846447863 
0.0082203645428 0.0082916428647 0.0080540639524 0.0075183695539 0.006711588865 0.0056744903613 0.0044573562124 0.0031145875095 0.0016988606601 
0.00025559448081 0.0014800789286 0.00047693585878 -0.00036470018317 -0.0010748442819 -0.0016850554752 -0.0022252310138 -0.002721730708 -0.0031964393924 
-0.0036664485972 -0.0041441228519 -0.0046373805299 -0.0051500663646 -0.0056823383678 -0.0062310322428 -0.0067899910288 -0.0073503601868 -0.0079008586667 
-0.0084280470657 -0.0089166186562 -0.0093497343117 -0.0097094156558 -0.0099770107486 -0.010133751227 -0.010161419711 -0.010043139369 -0.0097642900905 
-0.0093135361767 -0.0086727986405 -0.0078434174634 -0.0068286030195 -0.005639253023 -0.0042949326786 -0.0028244993133 -0.0012662769298 0.0003323622892 
0.0019161549229 0.0034239583774 0.0047916713713 0.0059560135561 0.006858973717 0.0074525677884 0.0077033784107 0.0075962195709 0.0071362373768 
0.006348869274 0.0052773605378 0.0039779471562 0.002513264227 0.00094488980867 -0.00067394399293 -0.00020381683993 -0.0012114781126 -0.0020596016102 
-0.0027791494452 -0.0034027868745 -0.0039614936397 -0.0044825946812 -0.0049887771671 -0.0054977586745 -0.0060223586345 -0.0065707892561 -0.0071470361967 
-0.0077512500995 -0.0083801084047 -0.0090271301967 -0.0096829442435 -0.010335526567 -0.010970434052 -0.011571059442 -0.012118926325 -0.012594041956 
-0.012975331874 -0.013241183498 -0.013370119969 -0.013341615115 -0.013137051674 -0.012740827563 -0.012134773808 -0.011308466632 -0.010261976864 
-0.0090025994768 -0.0075472528712 -0.0059235295043 -0.0041702963968 -0.0023376730683 -0.00048619232414 0.0013150391094 0.002991309976 0.0044664290975 
0.0056678680753 0.0065325711816 0.007012840955 0.0070814914235 0.0067353417708 0.0059961810068 0.0049086245276 0.0035347952322 0.0019463898035 
0.00021524222198 -0.0015962400524 -0.0020776032595 -0.0030837979152 -0.0039340686019 -0.0046599744164 -0.0052949726436 -0.0058708892637 -0.0064158630968 
-0.0069533118795 -0.0075015753702 -0.008073975865 -0.0086791035988 -0.0093211943668 -0.010000516885 -0.010713722586 -0.01145413685 -0.012211994801 
-0.012974643217 -0.013726735306 -0.014450439796 -0.015125683483 -0.015730453265 -0.016241190745 -0.016633310873 -0.016881867587 -0.016962378281 
-0.016851797033 -0.016529550567 -0.015978238865 -0.015174033368 -0.014112678259 -0.012796640771 -0.011238948504 -0.0094646704956 -0.0075120037006 
-0.0054327532492 -0.0032919528944 -0.0011663630084 0.00085838098987 0.0026920994828 0.0042458336128 0.0054387429756 0.0062055152449 0.0065033378408 
0.0063172355565 0.0056625334057 0.0045834674199 0.0031475698365 0.0014362984646 -0.00046678815749 -0.0024885142463 -0.0041379586797 -0.0051371954148 
-0.0059855980479 -0.006714905906 -0.0073590209274 -0.0079503727632 -0.0085177784888 -0.0090853460056 -0.009672072497 -0.010291872352 -0.010953839567 
-0.011662609697 -0.012418731849 -0.013218996118 -0.014056694527 -0.014921822548 -0.015801243675 -0.016678838947 -0.017535659977 -0.018350110258 
-0.019098189822 -0.019753841515 -0.020289432804 -0.020676402004 -0.020886095522 -0.020890824592 -0.020665194893 -0.020187907958 -0.019428299703 
-0.01837291534 -0.017018167719 -0.015371874459 -0.013455158945 -0.011304079641 -0.0089707218037 -0.0065234336233 -0.0040458559439 -0.0016344042038 
0.00060606182437 0.0025684725087 0.0041514916011 0.0052685736733 0.0058570781732 0.0058859631771 0.0053603686768 0.0043215688722 0.0028414330506 
0.0010116199949 -0.0010710612181 -0.0033208380632 -0.0063796327636 -0.0073671723465 -0.0082101589882 -0.0089400349441 -0.0095907736066 -0.010195168868 
-0.010782607978 -0.01137789214 -0.012000761986 -0.012665866246 -0.013382980991 -0.014157339973 -0.014989977235 -0.015878022069 -0.016814925861 
-0.017790629089 -0.01879168569 -0.01980136033 -0.020799718972 -0.021763745487 -0.022667524784 -0.023482532078 -0.024178064471 -0.024721849805 
-0.025080868561 -0.025222431806 -0.025115587465 -0.024733052596 -0.02404382361 -0.023018898651 -0.021647734734 -0.019931649237 -0.017886305771 
-0.015543947379 -0.012955207484 -0.010190123756 -0.0073379156709 -0.0045050609845 -0.0018112453046 0.00061709332651 0.00265560497 0.0041927646971 