# vtk DataFile Version 4.1
vtk output
ASCII
DATASET STRUCTURED_GRID
DIMENSIONS 51 51 1
POINTS 2601 float
0 0 0 0.02 0 0 0.04 0 0 
0.06 0 0 0.08 0 0 0.1 0 0 
0.12 0 0 0.14 0 0 0.16 0 0 
0.18 0 0 0.2 0 0 0.22 0 0 
0.24 0 0 0.26 0 0 0.28 0 0 
0.3 0 0 0.32 0 0 0.34 0 0 
0.36 0 0 0.38 0 0 0.4 0 0 
0.42 0 0 0.44 0 0 0.46 0 0 
0.48 0 0 0.5 0 0 0.52 0 0 
0.54 0 0 0.56 0 0 0.58 0 0 
0.6 0 0 0.62 0 0 0.64 0 0 
0.66 0 0 0.68 0 0 0.7 0 0 
0.72 0 0 0.74 0 0 0.76 0 0 
0.78 0 0 0.8 0 0 0.82 0 0 
0.84 0 0 0.86 0 0 0.88 0 0 
0.9 0 0 0.92 0 0 0.94 0 0 
0.96 0 0 0.98 0 0 1 0 0 
0 0.02 0 0.02 0.02 0 0.04 0.02 0 
0.06 0.02 0 0.08 0.02 0 0.1 0.02 0 
0.12 0.02 0 0.14 0.02 0 0.16 0.02 0 
0.18 0.02 0 0.2 0.02 0 0.22 0.02 0 
0.24 0.02 0 0.26 0.02 0 0.28 0.02 0 
0.3 0.02 0 0.32 0.02 0 0.34 0.02 0 
0.36 0.02 0 0.38 0.02 0 0.4 0.02 0 
0.42 0.02 0 0.44 0.02 0 0.46 0.02 0 
0.48 0.02 0 0.5 0.02 0 0.52 0.02 0 
0.54 0.02 0 0.56 0.02 0 0.58 0.02 0 
0.6 0.02 0 0.62 0.02 0 0.64 0.02 0 
0.66 0.02 0 0.68 0.02 0 0.7 0.02 0 
0.72 0.02 0 0.74 0.02 0 0.76 0.02 0 
0.78 0.02 0 0.8 0.02 0 0.82 0.02 0 
0.84 0.02 0 0.86 0.02 0 0.88 0.02 0 
0.9 0.02 0 0.92 0.02 0 0.94 0.02 0 
0.96 0.02 0 0.98 0.02 0 1 0.02 0 
0 0.04 0 0.02 0.04 0 0.04 0.04 0 
0.06 0.04 0 0.08 0.04 0 0.1 0.04 0 
0.12 0.04 0 0.14 0.04 0 0.16 0.04 0 
0.18 0.04 0 0.2 0.04 0 0.22 0.04 0 
0.24 0.04 0 0.26 0.04 0 0.28 0.04 0 
0.3 0.04 0 0.32 0.04 0 0.34 0.04 0 
0.36 0.04 0 0.38 0.04 0 0.4 0.04 0 
0.42 0.04 0 0.44 0.04 0 0.46 0.04 0 
0.48 0.04 0 0.5 0.04 0 0.52 0.04 0 
0.54 0.04 0 0.56 0.04 0 0.58 0.04 0 
0.6 0.04 0 0.62 0.04 0 0.64 0.04 0 
0.66 0.04 0 0.68 0.04 0 0.7 0.04 0 
0.72 0.04 0 0.74 0.04 0 0.76 0.04 0 
0.78 0.04 0 0.8 0.04 0 0.82 0.04 0 
0.84 0.04 0 0.86 0.04 0 0.88 0.04 0 
0.9 0.04 0 0.92 0.04 0 0.94 0.04 0 
0.96 0.04 0 0.98 0.04 0 1 0.04 0 
0 0.06 0 0.02 0.06 0 0.04 0.06 0 
0.06 0.06 0 0.08 0.06 0 0.1 0.06 0 
0.12 0.06 0 0.14 0.06 0 0.16 0.06 0 
0.18 0.06 0 0.2 0.06 0 0.22 0.06 0 
0.24 0.06 0 0.26 0.06 0 0.28 0.06 0 
0.3 0.06 0 0.32 0.06 0 0.34 0.06 0 
0.36 0.06 0 0.38 0.06 0 0.4 0.06 0 
0.42 0.06 0 0.44 0.06 0 0.46 0.06 0 
0.48 0.06 0 0.5 0.06 0 0.52 0.06 0 
0.54 0.06 0 0.56 0.06 0 0.58 0.06 0 
0.6 0.06 0 0.62 0.06 0 0.64 0.06 0 
0.66 0.06 0 0.68 0.06 0 0.7 0.06 0 
0.72 0.06 0 0.74 0.06 0 0.76 0.06 0 
0.78 0.06 0 0.8 0.06 0 0.82 0.06 0 
0.84 0.06 0 0.86 0.06 0 0.88 0.06 0 
0.9 0.06 0 0.92 0.06 0 0.94 0.06 0 
0.96 0.06 0 0.98 0.06 0 1 0.06 0 
0 0.08 0 0.02 0.08 0 0.04 0.08 0 
0.06 0.08 0 0.08 0.08 0 0.1 0.08 0 
0.12 0.08 0 0.14 0.08 0 0.16 0.08 0 
0.18 0.08 0 0.2 0.08 0 0.22 0.08 0 
0.24 0.08 0 0.26 0.08 0 0.28 0.08 0 
0.3 0.08 0 0.32 0.08 0 0.34 0.08 0 
0.36 0.08 0 0.38 0.08 0 0.4 0.08 0 
0.42 0.08 0 0.44 0.08 0 0.46 0.08 0 
0.48 0.08 0 0.5 0.08 0 0.52 0.08 0 
0.54 0.08 0 0.56 0.08 0 0.58 0.08 0 
0.6 0.08 0 0.62 0.08 0 0.64 0.08 0 
0.66 0.08 0 0.68 0.08 0 0.7 0.08 0 
0.72 0.08 0 0.74 0.08 0 0.76 0.08 0 
0.78 0.08 0 0.8 0.08 0 0.82 0.08 0 
0.84 0.08 0 0.86 0.08 0 0.88 0.08 0 
0.9 0.08 0 0.92 0.08 0 0.94 0.08 0 
0.96 0.08 0 0.98 0.08 0 1 0.08 0 
0 0.1 0 0.02 0.1 0 0.04 0.1 0 
0.06 0.1 0 0.08 0.1 0 0.1 0.1 0 
0.12 0.1 0 0.14 0.1 0 0.16 0.1 0 
0.18 0.1 0 0.2 0.1 0 0.22 0.1 0 
0.24 0.1 0 0.26 0.1 0 0.28 0.1 0 
0.3 0.1 0 0.32 0.1 0 0.34 0.1 0 
0.36 0.1 0 0.38 0.1 0 0.4 0.1 0 
0.42 0.1 0 0.44 0.1 0 0.46 0.1 0 
0.48 0.1 0 0.5 0.1 0 0.52 0.1 0 
0.54 0.1 0 0.56 0.1 0 0.58 0.1 0 
0.6 0.1 0 0.62 0.1 0 0.64 0.1 0 
0.66 0.1 0 0.68 0.1 0 0.7 0.1 0 
0.72 0.1 0 0.74 0.1 0 0.76 0.1 0 
0.78 0.1 0 0.8 0.1 0 0.82 0.1 0 
0.84 0.1 0 0.86 0.1 0 0.88 0.1 0 
0.9 0.1 0 0.92 0.1 0 0.94 0.1 0 
0.96 0.1 0 0.98 0.1 0 1 0.1 0 
0 0.12 0 0.02 0.12 0 0.04 0.12 0 
0.06 0.12 0 0.08 0.12 0 0.1 0.12 0 
0.12 0.12 0 0.14 0.12 0 0.16 0.12 0 
0.18 0.12 0 0.2 0.12 0 0.22 0.12 0 
0.24 0.12 0 0.26 0.12 0 0.28 0.12 0 
0.3 0.12 0 0.32 0.12 0 0.34 0.12 0 
0.36 0.12 0 0.38 0.12 0 0.4 0.12 0 
0.42 0.12 0 0.44 0.12 0 0.46 0.12 0 
0.48 0.12 0 0.5 0.12 0 0.52 0.12 0 
0.54 0.12 0 0.56 0.12 0 0.58 0.12 0 
0.6 0.12 0 0.62 0.12 0 0.64 0.12 0 
0.66 0.12 0 0.68 0.12 0 0.7 0.12 0 
0.72 0.12 0 0.74 0.12 0 0.76 0.12 0 
0.78 0.12 0 0.8 0.12 0 0.82 0.12 0 
0.84 0.12 0 0.86 0.12 0 0.88 0.12 0 
0.9 0.12 0 0.92 0.12 0 0.94 0.12 0 
0.96 0.12 0 0.98 0.12 0 1 0.12 0 
0 0.14 0 0.02 0.14 0 0.04 0.14 0 
0.06 0.14 0 0.08 0.14 0 0.1 0.14 0 
0.12 0.14 0 0.14 0.14 0 0.16 0.14 0 
0.18 0.14 0 0.2 0.14 0 0.22 0.14 0 
0.24 0.14 0 0.26 0.14 0 0.28 0.14 0 
0.3 0.14 0 0.32 0.14 0 0.34 0.14 0 
0.36 0.14 0 0.38 0.14 0 0.4 0.14 0 
0.42 0.14 0 0.44 0.14 0 0.46 0.14 0 
0.48 0.14 0 0.5 0.14 0 0.52 0.14 0 
0.54 0.14 0 0.56 0.14 0 0.58 0.14 0 
0.6 0.14 0 0.62 0.14 0 0.64 0.14 0 
0.66 0.14 0 0.68 0.14 0 0.7 0.14 0 
0.72 0.14 0 0.74 0.14 0 0.76 0.14 0 
0.78 0.14 0 0.8 0.14 0 0.82 0.14 0 
0.84 0.14 0 0.86 0.14 0 0.88 0.14 0 
0.9 0.14 0 0.92 0.14 0 0.94 0.14 0 
0.96 0.14 0 0.98 0.14 0 1 0.14 0 
0 0.16 0 0.02 0.16 0 0.04 0.16 0 
0.06 0.16 0 0.08 0.16 0 0.1 0.16 0 
0.12 0.16 0 0.14 0.16 0 0.16 0.16 0 
0.18 0.16 0 0.2 0.16 0 0.22 0.16 0 
0.24 0.16 0 0.26 0.16 0 0.28 0.16 0 
0.3 0.16 0 0.32 0.16 0 0.34 0.16 0 
0.36 0.16 0 0.38 0.16 0 0.4 0.16 0 
0.42 0.16 0 0.44 0.16 0 0.46 0.16 0 
0.48 0.16 0 0.5 0.16 0 0.52 0.16 0 
0.54 0.16 0 0.56 0.16 0 0.58 0.16 0 
0.6 0.16 0 0.62 0.16 0 0.64 0.16 0 
0.66 0.16 0 0.68 0.16 0 0.7 0.16 0 
0.72 0.16 0 0.74 0.16 0 0.76 0.16 0 
0.78 0.16 0 0.8 0.16 0 0.82 0.16 0 
0.84 0.16 0 0.86 0.16 0 0.88 0.16 0 
0.9 0.16 0 0.92 0.16 0 0.94 0.16 0 
0.96 0.16 0 0.98 0.16 0 1 0.16 0 
0 0.18 0 0.02 0.18 0 0.04 0.18 0 
0.06 0.18 0 0.08 0.18 0 0.1 0.18 0 
0.12 0.18 0 0.14 0.18 0 0.16 0.18 0 
0.18 0.18 0 0.2 0.18 0 0.22 0.18 0 
0.24 0.18 0 0.26 0.18 0 0.28 0.18 0 
0.3 0.18 0 0.32 0.18 0 0.34 0.18 0 
0.36 0.18 0 0.38 0.18 0 0.4 0.18 0 
0.42 0.18 0 0.44 0.18 0 0.46 0.18 0 
0.48 0.18 0 0.5 0.18 0 0.52 0.18 0 
0.54 0.18 0 0.56 0.18 0 0.58 0.18 0 
0.6 0.18 0 0.62 0.18 0 0.64 0.18 0 
0.66 0.18 0 0.68 0.18 0 0.7 0.18 0 
0.72 0.18 0 0.74 0.18 0 0.76 0.18 0 
0.78 0.18 0 0.8 0.18 0 0.82 0.18 0 
0.84 0.18 0 0.86 0.18 0 0.88 0.18 0 
0.9 0.18 0 0.92 0.18 0 0.94 0.18 0 
0.96 0.18 0 0.98 0.18 0 1 0.18 0 
0 0.2 0 0.02 0.2 0 0.04 0.2 0 
0.06 0.2 0 0.08 0.2 0 0.1 0.2 0 
0.12 0.2 0 0.14 0.2 0 0.16 0.2 0 
0.18 0.2 0 0.2 0.2 0 0.22 0.2 0 
0.24 0.2 0 0.26 0.2 0 0.28 0.2 0 
0.3 0.2 0 0.32 0.2 0 0.34 0.2 0 
0.36 0.2 0 0.38 0.2 0 0.4 0.2 0 
0.42 0.2 0 0.44 0.2 0 0.46 0.2 0 
0.48 0.2 0 0.5 0.2 0 0.52 0.2 0 
0.54 0.2 0 0.56 0.2 0 0.58 0.2 0 
0.6 0.2 0 0.62 0.2 0 0.64 0.2 0 
0.66 0.2 0 0.68 0.2 0 0.7 0.2 0 
0.72 0.2 0 0.74 0.2 0 0.76 0.2 0 
0.78 0.2 0 0.8 0.2 0 0.82 0.2 0 
0.84 0.2 0 0.86 0.2 0 0.88 0.2 0 
0.9 0.2 0 0.92 0.2 0 0.94 0.2 0 
0.96 0.2 0 0.98 0.2 0 1 0.2 0 
0 0.22 0 0.02 0.22 0 0.04 0.22 0 
0.06 0.22 0 0.08 0.22 0 0.1 0.22 0 
0.12 0.22 0 0.14 0.22 0 0.16 0.22 0 
0.18 0.22 0 0.2 0.22 0 0.22 0.22 0 
0.24 0.22 0 0.26 0.22 0 0.28 0.22 0 
0.3 0.22 0 0.32 0.22 0 0.34 0.22 0 
0.36 0.22 0 0.38 0.22 0 0.4 0.22 0 
0.42 0.22 0 0.44 0.22 0 0.46 0.22 0 
0.48 0.22 0 0.5 0.22 0 0.52 0.22 0 
0.54 0.22 0 0.56 0.22 0 0.58 0.22 0 
0.6 0.22 0 0.62 0.22 0 0.64 0.22 0 
0.66 0.22 0 0.68 0.22 0 0.7 0.22 0 
0.72 0.22 0 0.74 0.22 0 0.76 0.22 0 
0.78 0.22 0 0.8 0.22 0 0.82 0.22 0 
0.84 0.22 0 0.86 0.22 0 0.88 0.22 0 
0.9 0.22 0 0.92 0.22 0 0.94 0.22 0 
0.96 0.22 0 0.98 0.22 0 1 0.22 0 
0 0.24 0 0.02 0.24 0 0.04 0.24 0 
0.06 0.24 0 0.08 0.24 0 0.1 0.24 0 
0.12 0.24 0 0.14 0.24 0 0.16 0.24 0 
0.18 0.24 0 0.2 0.24 0 0.22 0.24 0 
0.24 0.24 0 0.26 0.24 0 0.28 0.24 0 
0.3 0.24 0 0.32 0.24 0 0.34 0.24 0 
0.36 0.24 0 0.38 0.24 0 0.4 0.24 0 
0.42 0.24 0 0.44 0.24 0 0.46 0.24 0 
0.48 0.24 0 0.5 0.24 0 0.52 0.24 0 
0.54 0.24 0 0.56 0.24 0 0.58 0.24 0 
0.6 0.24 0 0.62 0.24 0 0.64 0.24 0 
0.66 0.24 0 0.68 0.24 0 0.7 0.24 0 
0.72 0.24 0 0.74 0.24 0 0.76 0.24 0 
0.78 0.24 0 0.8 0.24 0 0.82 0.24 0 
0.84 0.24 0 0.86 0.24 0 0.88 0.24 0 
0.9 0.24 0 0.92 0.24 0 0.94 0.24 0 
0.96 0.24 0 0.98 0.24 0 1 0.24 0 
0 0.26 0 0.02 0.26 0 0.04 0.26 0 
0.06 0.26 0 0.08 0.26 0 0.1 0.26 0 
0.12 0.26 0 0.14 0.26 0 0.16 0.26 0 
0.18 0.26 0 0.2 0.26 0 0.22 0.26 0 
0.24 0.26 0 0.26 0.26 0 0.28 0.26 0 
0.3 0.26 0 0.32 0.26 0 0.34 0.26 0 
0.36 0.26 0 0.38 0.26 0 0.4 0.26 0 
0.42 0.26 0 0.44 0.26 0 0.46 0.26 0 
0.48 0.26 0 0.5 0.26 0 0.52 0.26 0 
0.54 0.26 0 0.56 0.26 0 0.58 0.26 0 
0.6 0.26 0 0.62 0.26 0 0.64 0.26 0 
0.66 0.26 0 0.68 0.26 0 0.7 0.26 0 
0.72 0.26 0 0.74 0.26 0 0.76 0.26 0 
0.78 0.26 0 0.8 0.26 0 0.82 0.26 0 
0.84 0.26 0 0.86 0.26 0 0.88 0.26 0 
0.9 0.26 0 0.92 0.26 0 0.94 0.26 0 
0.96 0.26 0 0.98 0.26 0 1 0.26 0 
0 0.28 0 0.02 0.28 0 0.04 0.28 0 
0.06 0.28 0 0.08 0.28 0 0.1 0.28 0 
0.12 0.28 0 0.14 0.28 0 0.16 0.28 0 
0.18 0.28 0 0.2 0.28 0 0.22 0.28 0 
0.24 0.28 0 0.26 0.28 0 0.28 0.28 0 
0.3 0.28 0 0.32 0.28 0 0.34 0.28 0 
0.36 0.28 0 0.38 0.28 0 0.4 0.28 0 
0.42 0.28 0 0.44 0.28 0 0.46 0.28 0 
0.48 0.28 0 0.5 0.28 0 0.52 0.28 0 
0.54 0.28 0 0.56 0.28 0 0.58 0.28 0 
0.6 0.28 0 0.62 0.28 0 0.64 0.28 0 
0.66 0.28 0 0.68 0.28 0 0.7 0.28 0 
0.72 0.28 0 0.74 0.28 0 0.76 0.28 0 
0.78 0.28 0 0.8 0.28 0 0.82 0.28 0 
0.84 0.28 0 0.86 0.28 0 0.88 0.28 0 
0.9 0.28 0 0.92 0.28 0 0.94 0.28 0 
0.96 0.28 0 0.98 0.28 0 1 0.28 0 
0 0.3 0 0.02 0.3 0 0.04 0.3 0 
0.06 0.3 0 0.08 0.3 0 0.1 0.3 0 
0.12 0.3 0 0.14 0.3 0 0.16 0.3 0 
0.18 0.3 0 0.2 0.3 0 0.22 0.3 0 
0.24 0.3 0 0.26 0.3 0 0.28 0.3 0 
0.3 0.3 0 0.32 0.3 0 0.34 0.3 0 
0.36 0.3 0 0.38 0.3 0 0.4 0.3 0 
0.42 0.3 0 0.44 0.3 0 0.46 0.3 0 
0.48 0.3 0 0.5 0.3 0 0.52 0.3 0 
0.54 0.3 0 0.56 0.3 0 0.58 0.3 0 
0.6 0.3 0 0.62 0.3 0 0.64 0.3 0 
0.66 0.3 0 0.68 0.3 0 0.7 0.3 0 
0.72 0.3 0 0.74 0.3 0 0.76 0.3 0 
0.78 0.3 0 0.8 0.3 0 0.82 0.3 0 
0.84 0.3 0 0.86 0.3 0 0.88 0.3 0 
0.9 0.3 0 0.92 0.3 0 0.94 0.3 0 
0.96 0.3 0 0.98 0.3 0 1 0.3 0 
0 0.32 0 0.02 0.32 0 0.04 0.32 0 
0.06 0.32 0 0.08 0.32 0 0.1 0.32 0 
0.12 0.32 0 0.14 0.32 0 0.16 0.32 0 
0.18 0.32 0 0.2 0.32 0 0.22 0.32 0 
0.24 0.32 0 0.26 0.32 0 0.28 0.32 0 
0.3 0.32 0 0.32 0.32 0 0.34 0.32 0 
0.36 0.32 0 0.38 0.32 0 0.4 0.32 0 
0.42 0.32 0 0.44 0.32 0 0.46 0.32 0 
0.48 0.32 0 0.5 0.32 0 0.52 0.32 0 
0.54 0.32 0 0.56 0.32 0 0.58 0.32 0 
[...]
CELL_DATA 2500
FIELD FieldData 1
pressure 1 2500 double
0.0037048728227 0.0036444366471 0.0034814862263 0.0032521771493 0.0029921206537 0.0027298468524 0.0024864162311 0.0022766705642 0.0021106950648 
0.001995091651 0.0019339920377 0.0019298262446 0.0019838811815 0.0020966839079 0.0022682408093 0.0024981601157 0.0027856820109 0.0031296377948 
0.0035283581438 0.0039795481803 0.0044801455255 0.0050261763289 0.0056126223203 0.0062333092596 0.0068808234551 0.0075464561677 0.0082199520667 
0.0088901378358 0.0095452819578 0.010173147102 0.010761316822 0.011297604469 0.011770520097 0.012169771212 0.012486770779 0.012715124351 
0.01285106767 0.012893826902 0.0128458802 0.01271310826 0.012504830875 0.012233739228 0.011915749334 0.011569806341 0.01121766317 
0.010883593962 0.010593907102 0.010375580042 0.010252312211 0.010233364752 0.0037662156673 0.0037051770656 0.0035669615033 0.0033784814142 
0.0031653447809 0.002949444874 0.0027481055813 0.0025743273791 0.0024374772521 0.0023440650594 0.002298451486 0.0023034325939 0.0023606900692 
0.0024711144908 0.0026350163577 0.0028522417232 0.0031222093663 0.0034438870216 0.0038157221678 0.0042355427196 0.0047004419682 0.0052066608858 
0.0057494799761 0.0063231320058 0.0069207469348 0.0075343438143 0.008154311267 0.0087703992829 0.0093719748177 0.0099479758347 0.010487232317 
0.010978844418 0.011412606025 0.011779454476 0.01207192317 0.012284571959 0.01241436846 0.012460995275 0.012427064892 0.012318229292 
0.01214317884 0.011913537185 0.011643667332 0.011350395128 0.011052649855 0.010770981802 0.010526821103 0.010341186271 0.010232593561 
0.010214623724 0.0039311459299 0.0038428440016 0.0037025568161 0.0035291851873 0.0033408613071 0.0031537156216 0.0029811235331 0.0028335886093 
0.0027190112747 0.0026431210224 0.0026099347349 0.0026221696811 0.002681579485 0.0027892044655 0.0029455386337 0.0031506215108 0.0034040667852 
0.0037050393194 0.0040521938075 0.0044435873176 0.0048765778634 0.0053477209944 0.005852675361 0.0063861290183 0.0069417589748 0.0075122390115 
0.0080884410179 0.0086608539358 0.0092196841294 0.0097547404152 0.010255742605 0.010712679568 0.011116206657 0.011458065134 0.011731502329 
0.011931668106 0.01205596079 0.012104299122 0.012079302039 0.011986361084 0.011833598801 0.011631719707 0.011393760161 0.011134738879 
0.010871215732 0.010620743951 0.010401158123 0.010229700525 0.010122178477 0.010092952658 0.0041663874015 0.0040323502042 0.0038711108413 
0.0036944054926 0.0035142304435 0.003341746197 0.003186567626 0.0030565086219 0.0029576358966 0.002894488483 0.0028703577931 0.0028875622786 
0.0029476816029 0.0030517341396 0.0032002936444 0.0033935487355 0.0036313114223 0.0039129840004 0.0042374937158 0.0046032056043 0.0050078238408 
0.0054482913528 0.0059206986847 0.006420213222 0.0069410398359 0.0074764255961 0.0080176378873 0.0085557207724 0.0090814862454 0.0095853417021 
0.010057585543 0.010488752785 0.010869999287 0.011193507384 0.01145289195 0.011643581302 0.011763145315 0.011811547642 0.011791301283 
0.011707510239 0.011567790761 0.011382079235 0.01116232714 0.010922093136 0.010676054553 0.0104394416 0.010227394889 0.010054335735 
0.0099334779589 0.009876795958 0.0044381203377 0.0042487831132 0.0040546773439 0.0038620177913 0.0036778657895 0.0035091787612 0.0033621719526 
0.0032420329727 0.0031528803189 0.0030978644052 0.0030793317867 0.0030989992321 0.0031581054821 0.0032575239015 0.0033978303033 0.0035793263567 
0.0038020223148 0.0040655858044 0.0043692643147 0.0047117895906 0.0050912716442 0.0055050933032 0.0059498133986 0.006421089018 0.0069136276119 
0.0074211794066 0.00793535261 0.0084475588319 0.0089490167795 0.0094304969183 0.0098826077519 0.010296135856 0.010662427115 0.01097379169 
0.01122391067 0.011408216664 0.011524219605 0.011571753261 0.01155311785 0.011473099756 0.011338863191 0.01115971943 0.01094677295 
0.010712466285 0.010470058889 0.010233046235 0.010014558816 0.0098268112489 0.0096806274891 0.0095850668977 0.0047178382776 0.0044694207444 
0.0042357090068 0.0040189552874 0.0038223584825 0.0036493863035 0.0035032723873 0.0033867703659 0.0033020897048 0.003250940843 0.0032346311653 
0.0032541708045 0.0033103620655 0.0034038588272 0.0035351907948 0.0037047509593 0.0039127503716 0.0041591446047 0.0044435386599 0.004765074902 
0.0051223150836 0.0055131214367 0.0059345466102 0.006382742577 0.0068528973009 0.0073392093632 0.0078335990448 0.0083276563582 0.0088128412991 
0.0092800876954 0.0097200840875 0.010123613929 0.010481942062 0.010787229604 0.011032953331 0.01121429923 0.011328500241 0.0113750904 
0.011356046699 0.011275797912 0.011141096896 0.010960757878 0.010745262064 0.010506262926 0.010256037105 0.010006880971 0.0097705266486 
0.009557602742 0.009377127217 0.0092359638981 0.004982387362 0.0046743313355 0.0043977254864 0.0041519895128 0.0039373019584 0.0037542425595 
0.0036034637172 0.0034855247116 0.0034008469081 0.0033497417748 0.0033324707903 0.0033493071429 0.003400580301 0.0034866939503 0.003608112035 
0.0037653139652 0.0039587210466 0.0041885997078 0.004454943286 0.0047573426352 0.0050948485667 0.0054658349482 0.0058678709242 0.0062976097199 
0.0067507056902 0.0072217682804 0.0077030329971 0.0081860790259 0.0086624732388 0.0091231459285 0.0095586689246 0.0099596001416 0.010316881729 
0.010622273463 0.010868795207 0.011051145653 0.011166065684 0.011212613704 0.011192320386 0.01110919997 0.010969615233 0.010781991748 
0.010556392267 0.010303988291 0.010036483744 0.0097654838024 0.0095019154452 0.0092554850684 0.0090341672697 0.0088436508517 0.0052127582115 
0.0048461562362 0.0045255281064 0.0042481717259 0.0040118374019 0.0038146792705 0.0036551097449 0.0035317308701 0.0034433295516 0.0033889097557 
0.0033677356544 0.0033793656685 0.003423665352 0.0035007922099 0.0036111504812 0.0037553172105 0.0039339433261 0.0041476307677 0.0043967936278 
0.004681505668 0.0050013417588 0.0053552200056 0.0057412493045 0.0061565975485 0.0065973849173 0.0070586132016 0.0075328783831 0.008011559492 
0.0084862259907 0.008947668323 0.0093861738505 0.0097918782499 0.010155180155 0.010467200015 0.010720254745 0.010908313404 0.011027399824 
0.011075903882 0.011054764668 0.010967500206 0.010820078768 0.010620621486 0.010378955205 0.0101060554 0.0098134411795 0.0095125132079 
0.0092139687883 0.0089272531255 0.0086600628159 0.0084178408983 0.0053928864499 0.0049696219142 0.0046051447727 0.004295034191 0.0040349935215 
0.0038210801564 0.0036497343164 0.003517809247 0.0034226132592 0.0033619554792 0.0033341821064 0.0033381923216 0.0033734272804 0.0034398284552 
0.0035377665082 0.0036679427806 0.0038312652002 0.0040287032541 0.0042611260776 0.0045291272148 0.0048328443969 0.0051717735243 0.0055445965311 
0.0059490209004 0.006381646787 0.0068378717554 0.0073107547159 0.0077912844198 0.0082709589111 0.0087403218004 0.0091892344527 0.0096072349448 
0.0099839720932 0.010309695022 0.010575768208 0.010775175933 0.010902978546 0.010956676252 0.010936438654 0.010845171626 0.010688410907 
0.010474027122 0.010211767221 0.0099126731403 0.0095884442742 0.0092507397866 0.0089105735207 0.008577748901 0.0082603711792 0.0079643905527 
0.0055087413021 0.0050310516252 0.0046236670762 0.0042806514415 0.0039958872717 0.0037635541256 0.0035783175339 0.0034354520474 0.0033309292785 
0.0032614789061 0.0032246213247 0.0032186696027 0.0032426983682 0.0032964806736 0.0033803949892 0.0034953044087 0.0036424109297 0.0038230895902 
0.0040387044188 0.0042904122863 0.004578954798 0.0049044532906 0.0052662049701 0.0056624960509 0.0060904406071 0.0065458586862 0.0070224532042 
0.0075106245251 0.008001760054 0.008486080893 0.0089529068874 0.009391022037 0.0097891289147 0.010136372832 0.010422904872 0.010640446968 
0.010782817041 0.01084636414 0.010830265458 0.010736652616 0.010570546778 0.010339583144 0.010053551915 0.0097237963612 0.0093625362479 
0.0089821254881 0.0085944047176 0.0082100984842 0.0078383106157 0.0074860840864 0.0055476951588 0.0050179707101 0.0045690738484 0.0041936358694 
0.0038838399894 0.003632125123 0.0034315209861 0.0032758558359 0.0031598857624 0.0030793683694 0.0030310913274 0.0030128605424 0.003023451193 
0.0030625255391 0.003130520175 0.0032285056439 0.0033580222839 0.0035208951593 0.0037190305894 0.0039541964757 0.0042277946489 0.0045406270947 
0.00489266523 0.0052828322881 0.0057088099091 0.0061668859184 0.006651700186 0.0071528445265 0.0076616037947 0.0081678353889 0.0086602291704 
0.009126677594 0.0095547493566 0.0099322498442 0.010247838401 0.010491665736 0.010655984598 0.010735677935 0.010728648434 0.010636030654 
0.010462191491 0.010214494937 0.0099028554282 0.0095391188173 0.0091363377144 0.0087079698438 0.008267158539 0.0078260601153 0.0073952842924 
0.0069834275102 0.0054981121788 0.0049188223054 0.0044300850733 0.0040231140652 0.0036884492066 0.0034168698241 0.0031998644969 0.0030299152661 
0.002900661964 0.0028069844199 0.002745024079 0.0027121572859 0.0027069287247 0.0027289505342 0.0027787716557 0.0028577206808 0.0029677255503 
0.0031111115617 0.0032903802528 0.0035079704494 0.003766009174 0.0040660513288 0.0044088201916 0.0047939547811 0.005219790736 0.0056831623773 
0.0061799484995 0.0066988266243 0.0072310151446 0.0077659979628 0.0082917759481 0.0087952349812 0.009262633034 0.0096801953007 0.010034790251 
0.010314650542 0.010510087109 0.01061413484 0.010623064271 0.010536711398 0.010358573607 0.010095640771 0.0097579774778 0.0093580914383 
0.0089101499804 0.0084290988175 0.0079298337611 0.0074264167033 0.0069314145078 0.0064553576372 0.005349097683 0.004722782936 0.0041960615583 
0.0037587098731 0.0033996432917 0.0031080273266 0.0028738733415 0.0026883917834 0.002544185661 0.0024353366315 0.0023574163168 0.0023074427762 
0.0022837948382 0.0022860932187 0.0023150535033 0.0023723139278 0.0024602414001 0.0025817156194 0.0027398935257 0.0029379536404 0.003178826933 
0.0034649105115 0.0037977765171 0.0041778934801 0.0046043445754 0.0050746112859 0.0055861948574 0.0061268427844 0.0066877844277 0.0072581557839 
0.0078252469249 0.0083748528133 0.0088917613816 0.0093603773334 0.0097654586648 0.010092930926 0.010330723495 0.010469560234 0.010503628149 
0.010431063298 0.010254180488 0.0099794042374 0.0096169025022 0.009179950223 0.0086840760517 0.0081460764306 0.0075830351831 0.0070113773898 
0.0064460521761 0.0058998642127 0.0050903645231 0.0044196605685 0.0038569523796 0.0033905468911 0.0030077361412 0.002696098021 0.0024442109288 
0.0022420699682 0.0020813042397 0.0019552626411 0.0018590115114 0.0017892716186 0.0017443129158 0.0017238178023 0.0017287183359 0.0017610114879 
0.0018235535425 0.0019198359345 0.0020537357158 0.0022292494568 0.0024502025617 0.0027199421841 0.003041019113 0.003414858401 0.0038414370516 
0.0043189837124 0.0048469058098 0.0054124218077 0.0060067751 0.0066188078586 0.0072351297145 0.0078404059857 0.0084178246771 0.0089497382552 
0.0094184589376 0.0098071738438 0.010100921911 0.010287559198 0.01035862467 0.010310028661 0.010142465014 0.0098614860048 0.0094772195869 
0.0090037422451 0.0084581473232 0.0078594258232 0.0072272838318 0.0065809734335 0.005938254904 0.0053145411371 0.0047121852667 0.0039998587237 
0.0034032864569 0.0029092754788 0.0025034914778 0.002171942736 0.0019018082662 0.0016819117075 0.001502958201 0.0013576161829 0.0012404982362 
0.0011480773462 0.0010785611267 0.0010317373218 0.0010087963986 0.0010121366317 0.0010451526671 0.0011120024857 0.0012173523578 0.0013660993655 
0.001563068941 0.001812685843 0.0021186266047 0.0024834548342 0.0029082455679 0.003392145738 0.003935959164 0.0045283607583 0.005159893738 
0.0058192553457 0.0064924996447 0.0071631936894 0.0078128432619 0.0084215402422 0.0089688108468 0.009434635211 0.0098005814628 0.0100509766 
0.010174014686 0.010162703351 0.01001551956 0.0097366866792 0.0093360212153 0.0088283400022 0.0082324474246 0.0075698528957 0.0068633292327 
0.0061354477364 0.0054072413307 0.0046970893677 0.0042054084059 0.0034543927995 0.0028262020551 0.0023061240782 0.001878200545 0.0015268884899 
0.0012379970571 0.00099921480992 0.00080036279762 0.00063346921663 0.00049273188437 0.00037441248722 0.00027669002551 0.00019948853313 0.00014428787759 
0.0001139225502 0.00011236633137 0.00014449523043 0.00021583186318 0.00033226337859 0.00049972738395 0.00072386435295 0.0010096544326 0.0013610193581 
0.0017804451592 0.0022686678542 0.0028246887192 0.0034450478058 0.0041163111136 0.0048277039619 0.0055650115405 0.0063108235381 0.007044946045 
0.0077450439847 0.0083875295245 0.0089486824629 0.0094059531252 0.0097393685945 0.0099329322629 0.0099758930711 0.0098637207968 0.0095986618074 
0.0091897806599 0.0086524436176 0.008007232929 0.0072784729986 0.0064924661481 0.0056756442017 0.0048528350455 0.0040457951582 0.0035615227269 
0.0027749462162 0.0021175063066 0.0015729710676 0.0011237730137 0.00075284270685 0.00044464963961 0.00018577976443 -3.4798161523e-05 -0.00022566667597 
-0.00039301651837 -0.00054077507525 -0.00067077351343 -0.0007829351261 -0.00087547287931 -0.00094509353223 -0.00098721487352 -0.00099619873123 -0.00096560181314 
-0.0008884604249 -0.00075761038206 -0.00056604177182 -0.00030729370484 2.4122088745e-05 0.00043227766354 0.00091939631675 0.001485444962 0.0021315231323 
0.0028430130332 0.0036096480945 0.0044171637402 0.0052473530688 0.0060783837875 0.0068853932631 0.0076413886553 0.0083184529141 0.0088892190644 
0.009328536516 0.0096152118916 0.0097336743068 0.0096753622026 0.009439656836 0.0090342099391 0.0084745700164 0.0077830502837 0.0069870425946 
0.006116861826 0.0052034086389 0.0042759160545 0.0033600085276 0.00277275616 0.0019539546867 0.0012697558172 0.00070243167419 0.0002328382801 
-0.00015758489808 -0.00048567368885 -0.00076591410584 -0.0010101644138 -0.0012275985802 -0.0014247832938 -0.0016058283827 -0.0017725736844 -0.0019247898592 
-0.0020603809499 -0.00217558974 -0.0022652098843 -0.0023228081823 -0.002340967963 -0.0023115670375 -0.002226097569 -0.0020760258906 -0.0018532079547 
-0.0015503576896 -0.0011615561775 -0.00068278485584 -0.00011253129375 0.0005553027371 0.0013053579418 0.0021285215063 0.0030108926134 0.0039337751724 
0.0048738760712 0.0058038070651 0.0066929538827 0.0075087371659 0.00821824714 0.0087901853697 0.009196993775 0.0094169950479 0.0094362991129 
0.0092502394283 0.0088641108452 0.0082930394578 0.0075608590215 0.0066982071763 0.0057399072559 0.0047220173201 0.003678899919 0.0026406466395 
0.0018321968384 0.00098470734358 0.00027634950653 -0.00031204705686 -0.00080114819043 -0.0012109565937 -0.0015595728495 -0.0018625249391 -0.0021324788904 
-0.002379191894 -0.0026096085255 -0.0028280316934 -0.0030363262345 -0.0032341288277 -0.0034190536787 -0.0035868935387 -0.0037318201394 -0.0038465900244 
-0.0039227741734 -0.003951021496 -0.0039213692972 -0.0038235981209 -0.0036476740674 -0.0033842425141 -0.003025189824 -0.0025643050526 -0.0019979777198 
-0.0013157907236 -0.00053166109883 0.00034682985647 0.0013066078314 0.0023289299183 0.0033893725488 0.0044581683822 0.0055009841844 0.0064801890038 
0.0073566202928 0.0080918002688 0.0086504898796 0.0090033839138 0.0091296590383 0.009019066299 0.0086732434737 0.0081059747927 0.0073421723044 
0.0064157756027 0.00536660477 0.00423664979 0.0030662658023 0.0018907480885 0.00073392416717 -0.00013854624721 -0.00086837672698 -0.0014760922103 
-0.0019838011664 -0.0024128832707 -0.002782656502 -0.0031096612811 -0.0034073594475 -0.0036860957593 -0.0039532106653 -0.0042132290069 -0.004468077076 
-0.004717298908 -0.0049582607745 -0.0051863413884 -0.0053951145418 -0.0055765345446 -0.0057211406446 -0.0058183001764 -0.0058564917582 -0.0058236643181 
-0.005707674303 -0.0054968017593 -0.0051803723608 -0.0047494820904 -0.0041978817193 -0.0035125149004 -0.0027019116749 -0.0017722730898 -0.00073526637058 
0.00039095354212 0.0015813597774 0.0028041443908 0.0040213324585 0.0051899889839 0.0062640629451 0.0071968540003 0.0079440101903 0.0084668498462 
0.0087356812637 0.0087327321999 0.0084542469472 0.0079113399332 0.0071292367137 0.0061450422579 0.0050040143823 0.003754930471 0.0024451599546 
0.0011161060149 -0.00052686227103 -0.0014204956691 -0.0021690643463 -0.0027943225093 -0.0033197132235 -0.0037679114115 -0.0041593981828 -0.0045116992469 
-0.0048390698835 -0.0051524612906 -0.0054596459075 -0.0057654204111 -0.0060718325586 -0.0063783997605 -0.0066823063095 -0.0069785787982 -0.0072602451425 
-0.0075184897791 -0.0077428279247 -0.0079213097656 -0.008040784037 -0.008087228216 -0.0080461842253 -0.0079032805449 -0.0076448785879 -0.0072588244254 
-0.0067352297018 -0.0060628507887 -0.0052360401413 -0.0042628417366 -0.0031521893441 -0.0019207049609 -0.00059324941089 0.00079690433953 0.0022084461794 
0.0035930867377 0.0048973986803 0.0060654774662 0.0070423709227 0.0077780795012 0.0082317754141 0.0083757723992 0.008198666313 0.0077070568453 
0.0069252807468 0.0058931800991 0.0046617805223 0.0032875606776 0.0018260991509 0.00032600899581 -0.0019537293827 -0.0028646873747 -0.0036292687823 
-0.0042702879636 -0.0048123847677 -0.0052794303377 -0.0056930101632 -0.006071613204 -0.0064302991264 -0.0067806623116 -0.0071309654035 -0.0074863515277 
-0.0078490757857 -0.0082187210988 -0.0085923844334 -0.0089648309682 -0.0093286224998 -0.0096742359708 -0.0099901964923 -0.010263240649 -0.010478534681 
-0.010619980399 -0.010670626498 -0.010613186766 -0.010430735546 -0.010107470609 -0.0096295760481 -0.0089858410427 -0.0081582236407 -0.0071534116387 
-0.0059768587268 -0.0046426653229 -0.0031745642721 -0.0016064671418 1.75670776e-05 0.0016441235475 0.0032121508664 0.004655716321 0.0059078131052 
0.0069050555072 0.0075929075875 0.0079309067551 0.0078971526003 0.0074912504268 0.0067348692999 0.005669737123 0.0043527697681 0.0028490744068 
0.0012238080043 -0.0004658771062 -0.0035489251215 -0.004473476399 -0.0052514303137 -0.0059064452979 -0.0064641881538 -0.0069496120011 -0.0073853457124 
-0.0077908310763 -0.0081819603156 -0.0085710320508 -0.0089668844668 -0.0093751103238 -0.0097982872085 -0.010236185575 -0.010685938979 -0.011142171175 
-0.011597087712 -0.012040552897 -0.012460171522 -0.012841396995 -0.013167702081 -0.013420841602 -0.013581221614 -0.013628438729 -0.013541958019 
-0.013302016428 -0.012890780181 -0.012294005993 -0.011484322636 -0.010464256183 -0.0092341903785 -0.0078044895248 -0.0061965796886 -0.0044439038603 
-0.0025923530342 -0.00069988756966 0.001164904954 0.0029255133946 0.0045015771904 0.0058142371306 0.0067924431231 0.00737963605 0.0075399247975 
0.0072626885421 0.0065644132356 0.0054872714831 0.0040938482226 0.0024587414344 0.00065821554075 -0.0012404564785 -0.0053133381232 -0.0062480244292 
-0.0070368942786 -0.007704182686 -0.0082763810677 -0.0087793953346 -0.0092368437517 -0.0096691258113 -0.010093022331 -0.010521628652 -0.010964478312 
-0.011427750929 -0.011914494535 -0.012424821059 -0.0129560553 -0.01350282988 -0.014057136052 -0.01460834974 -0.015143256349 -0.01564609487 
-0.01609867312 -0.016480563966 -0.016769447571 -0.016941590208 -0.016972552867 -0.016838113637 -0.016515447721 -0.015984614867 -0.015218237095 
-0.014204210805 -0.012937974299 -0.011425139091 -0.0096834949717 -0.0077446309504 -0.0056549938378 -0.0034760911368 -0.0012835177803 0.00083549416274 
0.0027862373342 0.0044724221392 0.0058035664666 0.0067033015731 0.0071175887222 0.0070214940474 0.0064228959137 0.0053621768832 0.0039068436489 
0.0021416624404 0.00015565230897 -0.0019719423521 -0.0072465156176 -0.0081883610202 -0.0089859978035 -0.0096639120525 -0.010249181707 -0.010768531685 
-0.011246525395 -0.011704555603 -0.012160385417 -0.012628043439 -0.013117920512 -0.013636962 -0.014188872097 -0.014774293325 -0.015390927564 
-0.016033594733 -0.016694239318 -0.017361903068 -0.018022683112 -0.01865971203 -0.019253195017 -0.019780554281 -0.020216674901 -0.020534374057 
-0.020705064649 -0.020699666023 -0.020489809774 -0.02004919381 -0.019351294174 -0.018367957929 -0.017087500661 -0.015509236194 -0.013645720706 
-0.011525010629 -0.0091924526892 -0.0067116364297 -0.0041641064925 -0.0016474151481 0.00072887270037 0.0028494046205 0.0046014157702 0.0058847486656 