# vtk DataFile Version 4.1
vtk output
ASCII
DATASET STRUCTURED_GRID
DIMENSIONS 51 51 1
POINTS 2601 float
0 0 0 0.02 0 0 0.04 0 0 
0.06 0 0 0.08 0 0 0.1 0 0 
0.12 0 0 0.14 0 0 0.16 0 0 
0.18 0 0 0.2 0 0 0.22 0 0 
0.24 0 0 0.26 0 0 0.28 0 0 
0.3 0 0 0.32 0 0 0.34 0 0 
0.36 0 0 0.38 0 0 0.4 0 0 
0.42 0 0 0.44 0 0 0.46 0 0 
0.48 0 0 0.5 0 0 0.52 0 0 
0.54 0 0 0.56 0 0 0.58 0 0 
0.6 0 0 0.62 0 0 0.64 0 0 
0.66 0 0 0.68 0 0 0.7 0 0 
0.72 0 0 0.74 0 0 0.76 0 0 
0.78 0 0 0.8 0 0 0.82 0 0 
0.84 0 0 0.86 0 0 0.88 0 0 
0.9 0 0 0.92 0 0 0.94 0 0 
0.96 0 0 0.98 0 0 1 0 0 
0 0.02 0 0.02 0.02 0 0.04 0.02 0 
0.06 0.02 0 0.08 0.02 0 0.1 0.02 0 
0.12 0.02 0 0.14 0.02 0 0.16 0.02 0 
0.18 0.02 0 0.2 0.02 0 0.22 0.02 0 
0.24 0.02 0 0.26 0.02 0 0.28 0.02 0 
0.3 0.02 0 0.32 0.02 0 0.34 0.02 0 
0.36 0.02 0 0.38 0.02 0 0.4 0.02 0 
0.42 0.02 0 0.44 0.02 0 0.46 0.02 0 
0.48 0.02 0 0.5 0.02 0 0.52 0.02 0 
0.54 0.02 0 0.56 0.02 0 0.58 0.02 0 
0.6 0.02 0 0.62 0.02 0 0.64 0.02 0 
0.66 0.02 0 0.68 0.02 0 0.7 0.02 0 
0.72 0.02 0 0.74 0.02 0 0.76 0.02 0 
0.78 0.02 0 0.8 0.02 0 0.82 0.02 0 
0.84 0.02 0 0.86 0.02 0 0.88 0.02 0 
0.9 0.02 0 0.92 0.02 0 0.94 0.02 0 
0.96 0.02 0 0.98 0.02 0 1 0.02 0 
0 0.04 0 0.02 0.04 0 0.04 0.04 0 
0.06 0.04 0 0.08 0.04 0 0.1 0.04 0 
0.12 0.04 0 0.14 0.04 0 0.16 0.04 0 
0.18 0.04 0 0.2 0.04 0 0.22 0.04 0 
0.24 0.04 0 0.26 0.04 0 0.28 0.04 0 
0.3 0.04 0 0.32 0.04 0 0.34 0.04 0 
0.36 0.04 0 0.38 0.04 0 0.4 0.04 0 
0.42 0.04 0 0.44 0.04 0 0.46 0.04 0 
0.48 0.04 0 0.5 0.04 0 0.52 0.04 0 
0.54 0.04 0 0.56 0.04 0 0.58 0.04 0 
0.6 0.04 0 0.62 0.04 0 0.64 0.04 0 
0.66 0.04 0 0.68 0.04 0 0.7 0.04 0 
0.72 0.04 0 0.74 0.04 0 0.76 0.04 0 
0.78 0.04 0 0.8 0.04 0 0.82 0.04 0 
0.84 0.04 0 0.86 0.04 0 0.88 0.04 0 
0.9 0.04 0 0.92 0.04 0 0.94 0.04 0 
0.96 0.04 0 0.98 0.04 0 1 0.04 0 
0 0.06 0 0.02 0.06 0 0.04 0.06 0 
0.06 0.06 0 0.08 0.06 0 0.1 0.06 0 
0.12 0.06 0 0.14 0.06 0 0.16 0.06 0 
0.18 0.06 0 0.2 0.06 0 0.22 0.06 0 
0.24 0.06 0 0.26 0.06 0 0.28 0.06 0 
0.3 0.06 0 0.32 0.06 0 0.34 0.06 0 
0.36 0.06 0 0.38 0.06 0 0.4 0.06 0 
0.42 0.06 0 0.44 0.06 0 0.46 0.06 0 
0.48 0.06 0 0.5 0.06 0 0.52 0.06 0 
0.54 0.06 0 0.56 0.06 0 0.58 0.06 0 
0.6 0.06 0 0.62 0.06 0 0.64 0.06 0 
0.66 0.06 0 0.68 0.06 0 0.7 0.06 0 
0.72 0.06 0 0.74 0.06 0 0.76 0.06 0 
0.78 0.06 0 0.8 0.06 0 0.82 0.06 0 
0.84 0.06 0 0.86 0.06 0 0.88 0.06 0 
0.9 0.06 0 0.92 0.06 0 0.94 0.06 0 
0.96 0.06 0 0.98 0.06 0 1 0.06 0 
0 0.08 0 0.02 0.08 0 0.04 0.08 0 
0.06 0.08 0 0.08 0.08 0 0.1 0.08 0 
0.12 0.08 0 0.14 0.08 0 0.16 0.08 0 
0.18 0.08 0 0.2 0.08 0 0.22 0.08 0 
0.24 0.08 0 0.26 0.08 0 0.28 0.08 0 
0.3 0.08 0 0.32 0.08 0 0.34 0.08 0 
0.36 0.08 0 0.38 0.08 0 0.4 0.08 0 
0.42 0.08 0 0.44 0.08 0 0.46 0.08 0 
0.48 0.08 0 0.5 0.08 0 0.52 0.08 0 
0.54 0.08 0 0.56 0.08 0 0.58 0.08 0 
0.6 0.08 0 0.62 0.08 0 0.64 0.08 0 
0.66 0.08 0 0.68 0.08 0 0.7 0.08 0 
0.72 0.08 0 0.74 0.08 0 0.76 0.08 0 
0.78 0.08 0 0.8 0.08 0 0.82 0.08 0 
0.84 0.08 0 0.86 0.08 0 0.88 0.08 0 
0.9 0.08 0 0.92 0.08 0 0.94 0.08 0 
0.96 0.08 0 0.98 0.08 0 1 0.08 0 
0 0.1 0 0.02 0.1 0 0.04 0.1 0 
0.06 0.1 0 0.08 0.1 0 0.1 0.1 0 
0.12 0.1 0 0.14 0.1 0 0.16 0.1 0 
0.18 0.1 0 0.2 0.1 0 0.22 0.1 0 
0.24 0.1 0 0.26 0.1 0 0.28 0.1 0 
0.3 0.1 0 0.32 0.1 0 0.34 0.1 0 
0.36 0.1 0 0.38 0.1 0 0.4 0.1 0 
0.42 0.1 0 0.44 0.1 0 0.46 0.1 0 
0.48 0.1 0 0.5 0.1 0 0.52 0.1 0 
0.54 0.1 0 0.56 0.1 0 0.58 0.1 0 
0.6 0.1 0 0.62 0.1 0 0.64 0.1 0 
0.66 0.1 0 0.68 0.1 0 0.7 0.1 0 
0.72 0.1 0 0.74 0.1 0 0.76 0.1 0 
0.78 0.1 0 0.8 0.1 0 0.82 0.1 0 
0.84 0.1 0 0.86 0.1 0 0.88 0.1 0 
0.9 0.1 0 0.92 0.1 0 0.94 0.1 0 
0.96 0.1 0 0.98 0.1 0 1 0.1 0 
0 0.12 0 0.02 0.12 0 0.04 0.12 0 
0.06 0.12 0 0.08 0.12 0 0.1 0.12 0 
0.12 0.12 0 0.14 0.12 0 0.16 0.12 0 
0.18 0.12 0 0.2 0.12 0 0.22 0.12 0 
0.24 0.12 0 0.26 0.12 0 0.28 0.12 0 
0.3 0.12 0 0.32 0.12 0 0.34 0.12 0 
0.36 0.12 0 0.38 0.12 0 0.4 0.12 0 
0.42 0.12 0 0.44 0.12 0 0.46 0.12 0 
0.48 0.12 0 0.5 0.12 0 0.52 0.12 0 
0.54 0.12 0 0.56 0.12 0 0.58 0.12 0 
0.6 0.12 0 0.62 0.12 0 0.64 0.12 0 
0.66 0.12 0 0.68 0.12 0 0.7 0.12 0 
0.72 0.12 0 0.74 0.12 0 0.76 0.12 0 
0.78 0.12 0 0.8 0.12 0 0.82 0.12 0 
0.84 0.12 0 0.86 0.12 0 0.88 0.12 0 
0.9 0.12 0 0.92 0.12 0 0.94 0.12 0 
0.96 0.12 0 0.98 0.12 0 1 0.12 0 
0 0.14 0 0.02 0.14 0 0.04 0.14 0 
0.06 0.14 0 0.08 0.14 0 0.1 0.14 0 
0.12 0.14 0 0.14 0.14 0 0.16 0.14 0 
0.18 0.14 0 0.2 0.14 0 0.22 0.14 0 
0.24 0.14 0 0.26 0.14 0 0.28 0.14 0 
0.3 0.14 0 0.32 0.14 0 0.34 0.14 0 
0.36 0.14 0 0.38 0.14 0 0.4 0.14 0 
0.42 0.14 0 0.44 0.14 0 0.46 0.14 0 
0.48 0.14 0 0.5 0.14 0 0.52 0.14 0 
0.54 0.14 0 0.56 0.14 0 0.58 0.14 0 
0.6 0.14 0 0.62 0.14 0 0.64 0.14 0 
0.66 0.14 0 0.68 0.14 0 0.7 0.14 0 
0.72 0.14 0 0.74 0.14 0 0.76 0.14 0 
0.78 0.14 0 0.8 0.14 0 0.82 0.14 0 
0.84 0.14 0 0.86 0.14 0 0.88 0.14 0 
0.9 0.14 0 0.92 0.14 0 0.94 0.14 0 
0.96 0.14 0 0.98 0.14 0 1 0.14 0 
0 0.16 0 0.02 0.16 0 0.04 0.16 0 
0.06 0.16 0 0.08 0.16 0 0.1 0.16 0 
0.12 0.16 0 0.14 0.16 0 0.16 0.16 0 
0.18 0.16 0 0.2 0.16 0 0.22 0.16 0 
0.24 0.16 0 0.26 0.16 0 0.28 0.16 0 
0.3 0.16 0 0.32 0.16 0 0.34 0.16 0 
0.36 0.16 0 0.38 0.16 0 0.4 0.16 0 
0.42 0.16 0 0.44 0.16 0 0.46 0.16 0 
0.48 0.16 0 0.5 0.16 0 0.52 0.16 0 
0.54 0.16 0 0.56 0.16 0 0.58 0.16 0 
0.6 0.16 0 0.62 0.16 0 0.64 0.16 0 
0.66 0.16 0 0.68 0.16 0 0.7 0.16 0 
0.72 0.16 0 0.74 0.16 0 0.76 0.16 0 
0.78 0.16 0 0.8 0.16 0 0.82 0.16 0 
0.84 0.16 0 0.86 0.16 0 0.88 0.16 0 
0.9 0.16 0 0.92 0.16 0 0.94 0.16 0 
0.96 0.16 0 0.98 0.16 0 1 0.16 0 
0 0.18 0 0.02 0.18 0 0.04 0.18 0 
0.06 0.18 0 0.08 0.18 0 0.1 0.18 0 
0.12 0.18 0 0.14 0.18 0 0.16 0.18 0 
0.18 0.18 0 0.2 0.18 0 0.22 0.18 0 
0.24 0.18 0 0.26 0.18 0 0.28 0.18 0 
0.3 0.18 0 0.32 0.18 0 0.34 0.18 0 
0.36 0.18 0 0.38 0.18 0 0.4 0.18 0 
0.42 0.18 0 0.44 0.18 0 0.46 0.18 0 
0.48 0.18 0 0.5 0.18 0 0.52 0.18 0 
0.54 0.18 0 0.56 0.18 0 0.58 0.18 0 
0.6 0.18 0 0.62 0.18 0 0.64 0.18 0 
0.66 0.18 0 0.68 0.18 0 0.7 0.18 0 
0.72 0.18 0 0.74 0.18 0 0.76 0.18 0 
0.78 0.18 0 0.8 0.18 0 0.82 0.18 0 
0.84 0.18 0 0.86 0.18 0 0.88 0.18 0 
0.9 0.18 0 0.92 0.18 0 0.94 0.18 0 
0.96 0.18 0 0.98 0.18 0 1 0.18 0 
0 0.2 0 0.02 0.2 0 0.04 0.2 0 
0.06 0.2 0 0.08 0.2 0 0.1 0.2 0 
0.12 0.2 0 0.14 0.2 0 0.16 0.2 0 
0.18 0.2 0 0.2 0.2 0 0.22 0.2 0 
0.24 0.2 0 0.26 0.2 0 0.28 0.2 0 
0.3 0.2 0 0.32 0.2 0 0.34 0.2 0 
0.36 0.2 0 0.38 0.2 0 0.4 0.2 0 
0.42 0.2 0 0.44 0.2 0 0.46 0.2 0 
0.48 0.2 0 0.5 0.2 0 0.52 0.2 0 
0.54 0.2 0 0.56 0.2 0 0.58 0.2 0 
0.6 0.2 0 0.62 0.2 0 0.64 0.2 0 
0.66 0.2 0 0.68 0.2 0 0.7 0.2 0 
0.72 0.2 0 0.74 0.2 0 0.76 0.2 0 
0.78 0.2 0 0.8 0.2 0 0.82 0.2 0 
0.84 0.2 0 0.86 0.2 0 0.88 0.2 0 
0.9 0.2 0 0.92 0.2 0 0.94 0.2 0 
0.96 0.2 0 0.98 0.2 0 1 0.2 0 
0 0.22 0 0.02 0.22 0 0.04 0.22 0 
0.06 0.22 0 0.08 0.22 0 0.1 0.22 0 
0.12 0.22 0 0.14 0.22 0 0.16 0.22 0 
0.18 0.22 0 0.2 0.22 0 0.22 0.22 0 
0.24 0.22 0 0.26 0.22 0 0.28 0.22 0 
0.3 0.22 0 0.32 0.22 0 0.34 0.22 0 
0.36 0.22 0 0.38 0.22 0 0.4 0.22 0 
0.42 0.22 0 0.44 0.22 0 0.46 0.22 0 
0.48 0.22 0 0.5 0.22 0 0.52 0.22 0 
0.54 0.22 0 0.56 0.22 0 0.58 0.22 0 
0.6 0.22 0 0.62 0.22 0 0.64 0.22 0 
0.66 0.22 0 0.68 0.22 0 0.7 0.22 0 
0.72 0.22 0 0.74 0.22 0 0.76 0.22 0 
0.78 0.22 0 0.8 0.22 0 0.82 0.22 0 
0.84 0.22 0 0.86 0.22 0 0.88 0.22 0 
0.9 0.22 0 0.92 0.22 0 0.94 0.22 0 
0.96 0.22 0 0.98 0.22 0 1 0.22 0 
0 0.24 0 0.02 0.24 0 0.04 0.24 0 
0.06 0.24 0 0.08 0.24 0 0.1 0.24 0 
0.12 0.24 0 0.14 0.24 0 0.16 0.24 0 
0.18 0.24 0 0.2 0.24 0 0.22 0.24 0 
0.24 0.24 0 0.26 0.24 0 0.28 0.24 0 
0.3 0.24 0 0.32 0.24 0 0.34 0.24 0 
0.36 0.24 0 0.38 0.24 0 0.4 0.24 0 
0.42 0.24 0 0.44 0.24 0 0.46 0.24 0 
0.48 0.24 0 0.5 0.24 0 0.52 0.24 0 
0.54 0.24 0 0.56 0.24 0 0.58 0.24 0 
0.6 0.24 0 0.62 0.24 0 0.64 0.24 0 
0.66 0.24 0 0.68 0.24 0 0.7 0.24 0 
0.72 0.24 0 0.74 0.24 0 0.76 0.24 0 
0.78 0.24 0 0.8 0.24 0 0.82 0.24 0 
0.84 0.24 0 0.86 0.24 0 0.88 0.24 0 
0.9 0.24 0 0.92 0.24 0 0.94 0.24 0 
0.96 0.24 0 0.98 0.24 0 1 0.24 0 
0 0.26 0 0.02 0.26 0 0.04 0.26 0 
0.06 0.26 0 0.08 0.26 0 0.1 0.26 0 
0.12 0.26 0 0.14 0.26 0 0.16 0.26 0 
0.18 0.26 0 0.2 0.26 0 0.22 0.26 0 
0.24 0.26 0 0.26 0.26 0 0.28 0.26 0 
0.3 0.26 0 0.32 0.26 0 0.34 0.26 0 
0.36 0.26 0 0.38 0.26 0 0.4 0.26 0 
0.42 0.26 0 0.44 0.26 0 0.46 0.26 0 
0.48 0.26 0 0.5 0.26 0 0.52 0.26 0 
0.54 0.26 0 0.56 0.26 0 0.58 0.26 0 
0.6 0.26 0 0.62 0.26 0 0.64 0.26 0 
0.66 0.26 0 0.68 0.26 0 0.7 0.26 0 
0.72 0.26 0 0.74 0.26 0 0.76 0.26 0 
0.78 0.26 0 0.8 0.26 0 0.82 0.26 0 
0.84 0.26 0 0.86 0.26 0 0.88 0.26 0 
0.9 0.26 0 0.92 0.26 0 0.94 0.26 0 
0.96 0.26 0 0.98 0.26 0 1 0.26 0 
0 0.28 0 0.02 0.28 0 0.04 0.28 0 
0.06 0.28 0 0.08 0.28 0 0.1 0.28 0 
0.12 0.28 0 0.14 0.28 0 0.16 0.28 0 
0.18 0.28 0 0.2 0.28 0 0.22 0.28 0 
0.24 0.28 0 0.26 0.28 0 0.28 0.28 0 
0.3 0.28 0 0.32 0.28 0 0.34 0.28 0 
0.36 0.28 0 0.38 0.28 0 0.4 0.28 0 
0.42 0.28 0 0.44 0.28 0 0.46 0.28 0 
0.48 0.28 0 0.5 0.28 0 0.52 0.28 0 
0.54 0.28 0 0.56 0.28 0 0.58 0.28 0 
0.6 0.28 0 0.62 0.28 0 0.64 0.28 0 
0.66 0.28 0 0.68 0.28 0 0.7 0.28 0 
0.72 0.28 0 0.74 0.28 0 0.76 0.28 0 
0.78 0.28 0 0.8 0.28 0 0.82 0.28 0 
0.84 0.28 0 0.86 0.28 0 0.88 0.28 0 
0.9 0.28 0 0.92 0.28 0 0.94 0.28 0 
0.96 0.28 0 0.98 0.28 0 1 0.28 0 
0 0.3 0 0.02 0.3 0 0.04 0.3 0 
0.06 0.3 0 0.08 0.3 0 0.1 0.3 0 
0.12 0.3 0 0.14 0.3 0 0.16 0.3 0 
0.18 0.3 0 0.2 0.3 0 0.22 0.3 0 
0.24 0.3 0 0.26 0.3 0 0.28 0.3 0 
0.3 0.3 0 0.32 0.3 0 0.34 0.3 0 
0.36 0.3 0 0.38 0.3 0 0.4 0.3 0 
0.42 0.3 0 0.44 0.3 0 0.46 0.3 0 
0.48 0.3 0 0.5 0.3 0 0.52 0.3 0 
0.54 0.3 0 0.56 0.3 0 0.58 0.3 0 
0.6 0.3 0 0.62 0.3 0 0.64 0.3 0 
0.66 0.3 0 0.68 0.3 0 0.7 0.3 0 
0.72 0.3 0 0.74 0.3 0 0.76 0.3 0 
0.78 0.3 0 0.8 0.3 0 0.82 0.3 0 
0.84 0.3 0 0.86 0.3 0 0.88 0.3 0 
0.9 0.3 0 0.92 0.3 0 0.94 0.3 0 
0.96 0.3 0 0.98 0.3 0 1 0.3 0 
0 0.32 0 0.02 0.32 0 0.04 0.32 0 
0.06 0.32 0 0.08 0.32 0 0.1 0.32 0 
0.12 0.32 0 0.14 0.32 0 0.16 0.32 0 
0.18 0.32 0 0.2 0.32 0 0.22 0.32 0 
0.24 0.32 0 0.26 0.32 0 0.28 0.32 0 
0.3 0.32 0 0.32 0.32 0 0.34 0.32 0 
0.36 0.32 0 0.38 0.32 0 0.4 0.32 0 
0.42 0.32 0 0.44 0.32 0 0.46 0.32 0 
0.48 0.32 0 0.5 0.32 0 0.52 0.32 0 
0.54 0.32 0 0.56 0.32 0 0.58 0.32 0 
[...]
CELL_DATA 2500
FIELD FieldData 1
pressure 1 2500 double
0.0058112103319 0.0057453174183 0.0055601486046 0.0052932561707 0.0049835216883 0.0046634391264 0.0043582877932 0.0040867023617 0.0038614055586 
0.0036901598725 0.0035770815331 0.0035241312936 0.003532389691 0.0036028041778 0.0037363566026 0.0039338383333 0.004195505292 0.0045208169866 
0.0049083250588 0.0053556604207 0.0058595225545 0.0064156010127 0.0070184203283 0.0076611513944 0.0083354473537 0.0090313375039 0.0097368414628 
0.010439053157 0.011124388717 0.01177869559 0.012387654239 0.012937270361 0.013414433418 0.013807517018 0.014106990407 0.014306003197 
0.014400901119 0.014391632849 0.014282018422 0.014079864816 0.013796933525 0.013448780078 0.013054499936 0.01263641438 0.012219728111 
0.011832062376 0.011502732099 0.011260898184 0.011130575346 0.011117268994 0.005877109471 0.0058121857494 0.0056544259082 0.0054323905653 
0.0051748924838 0.00490787633 0.0046525567161 0.0044247378033 0.0042351422404 0.0040905136137 0.0039950502523 0.0039516541884 0.0039626617063 
0.0040300349049 0.004155229745 0.004339004688 0.0045813316364 0.0048814253617 0.0052378111863 0.0056483369305 0.0061100819084 0.0066191819437 
0.0071706302073 0.0077581177032 0.0083739507823 0.009009057158 0.0096521795951 0.01029162593 0.010915160014 0.011510037563 0.012063391319 
0.01256269315 0.012996277643 0.013353899334 0.013627287952 0.013810663209 0.013901171942 0.013899218508 0.013808668063 0.013636914814 
0.013394816398 0.013096505753 0.012759095361 0.012402286537 0.012047880423 0.011719133732 0.01143977772 0.011232487785 0.011116322456 
0.011104061616 0.0060675204082 0.0059722253399 0.0058105526189 0.0056039128178 0.0053741870698 0.0051412400324 0.004921113783 0.004725506728 
0.0045624463527 0.0044375452471 0.0043551363315 0.0043188704108 0.0043317828782 0.0043961152742 0.0045131914691 0.0046834792039 0.0049067820258 
0.0051824179638 0.0055092693719 0.0058856756613 0.0063092231751 0.0067765209616 0.0072830322718 0.0078229875043 0.0083893673406 0.0089739407818 
0.0095659774053 0.010154768825 0.010729067074 0.01127711358 0.011787028631 0.012247272079 0.012647151719 0.012977347601 0.013230418743 
0.013401260525 0.013487485078 0.013489703042 0.013411688025 0.013260413371 0.013045953512 0.012781255858 0.012481787656 0.012165074843 
0.011850133993 0.01155678606 0.011304813081 0.01111298172 0.010998158659 0.010975618127 0.0063453122771 0.0061962264678 0.0060085062516 
0.0057970306634 0.005577333145 0.0053630397291 0.0051646701447 0.0049898252855 0.004844195243 0.0047325603211 0.0046592460962 0.0046280155659 
0.0046417462141 0.0047022616553 0.0048104598867 0.0049666301202 0.005170743397 0.005422557603 0.0057215107151 0.0060664828774 0.0064555448396 
0.006885772738 0.0073531469336 0.0078525066405 0.0083775289725 0.0089207296492 0.0094717677429 0.010020637237 0.010556748753 0.011068989521 
0.011546121265 0.011977234544 0.012352234134 0.012662329595 0.012900506931 0.013061956544 0.013144433365 0.013148523475 0.013077792904 
0.012938799659 0.012740958311 0.012496261168 0.012218865171 0.011924572719 0.011630223456 0.011353024986 0.011109850968 0.010916591163 
0.010787751953 0.010736742625 0.0066708537749 0.0064555686982 0.0062285235776 0.0059989272701 0.0057760940032 0.0055676095264 0.0053790631163 
0.0052148002758 0.0050788142678 0.0049751142543 0.0049074776151 0.0048789566415 0.0048915857122 0.0049464829208 0.0050442245499 0.0051852203558 
0.0053698787135 0.0055985178718 0.0058711178714 0.0061870487283 0.0065448663208 0.0069421878844 0.0073756111902 0.0078406384551 0.0083316014812 
0.0088416192866 0.0093606255151 0.0098790585475 0.010386764322 0.010873046472 0.011327049968 0.011738190245 0.012096612802 0.012393667429 
0.012622377267 0.012777875018 0.01285777504 0.012862445091 0.012795147881 0.012662028094 0.012471939479 0.012236115395 0.011967704949 
0.011681207504 0.011391839359 0.011114877854 0.010865030706 0.010655889895 0.010499559105 0.010406476211 0.0070103775922 0.0067244289781 
0.0064512225391 0.006194847096 0.0059588484391 0.0057456736394 0.0055571782979 0.0053954320773 0.0052630672667 0.0051629728992 0.0050976762084 
0.0050689098218 0.0050776270899 0.0051243684415 0.005209677817 0.0053343140691 0.0054991877491 0.0057051182802 0.0059525567143 0.0062413677027 
0.0065706797341 0.0069387614848 0.0073428883869 0.0077792003186 0.008242587639 0.0087266478239 0.0092215642563 0.0097180386562 0.010206225454 
0.010675668776 0.011115651395 0.011515600359 0.011865543353 0.012156600459 0.012381483713 0.012534966247 0.012614279746 0.012619397767 
0.012553173827 0.01242131062 0.012232159518 0.011996353174 0.011726302911 0.011435593798 0.011138324908 0.010848446891 0.010579147672 
0.01034231845 0.010148122151 0.010004535664 0.0073366723374 0.006980103666 0.0066576167388 0.0063686307633 0.0061118970664 0.005886066453 
0.0056904580559 0.0055254421257 0.0053921527315 0.0052918159792 0.0052252123634 0.00519259725 0.0051940247686 0.0052297708316 0.0053005690212 
0.0054075673429 0.0055520956786 0.0057353941909 0.0059583928413 0.0062215424229 0.0065246500477 0.0068666866815 0.0072455808085 0.0076580428375 
0.0080994615144 0.0085638851981 0.0090418391444 0.0095241472981 0.010001165421 0.010462486499 0.010897265524 0.011294629499 0.011644162101 
0.011936437336 0.012163562605 0.012319686118 0.012401423011 0.012408158512 0.012342196076 0.012208728381 0.012015626697 0.011773051824 
0.011492920086 0.011188260753 0.010872522783 0.010558889477 0.010259653207 0.0099856730335 0.0097459104979 0.0095469165232 0.0076275029302 
0.0072022662149 0.0068291611772 0.006503624474 0.0062208922422 0.0059770769701 0.0057696830549 0.005597410021 0.0054594904149 0.0053550938058 
0.0052831757783 0.0052427624478 0.0052333724062 0.0052552669057 0.0053094167047 0.0053972749453 0.0055205115976 0.0056807997186 0.0058796393858 
0.0061181633382 0.006396892834 0.0067154720019 0.0070724371555 0.0074650613089 0.0078892759933 0.0083396453312 0.0088071891338 0.0092826730076 
0.0097565140098 0.010218143903 0.01065634104 0.011059670299 0.011417008216 0.011718119055 0.011954238335 0.012118620224 0.012207003154 
0.012217952553 0.012153042916 0.012016854245 0.011816768834 0.011562573464 0.011265898687 0.010939539645 0.010596724995 0.010250398658 
0.0099125723165 0.0095937717701 0.0093025663255 0.0090450863601 0.0078637261585 0.0073722005938 0.006948029547 0.0065836152841 0.0062718491925 
0.0060070694807 0.0057850907381 0.0056026245113 0.0054566641496 0.0053442871458 0.0052629215909 0.0052107854981 0.0051871630168 0.0051923819525 
0.0052275840883 0.0052944581947 0.0053950327302 0.0055315045467 0.0057060303108 0.005920446755 0.0061759570242 0.0064728523083 0.0068103122493 
0.0071862732661 0.0075973282788 0.0080386323978 0.0085018451301 0.0089774279466 0.009455713571 0.0099258012084 0.010375911628 0.010793855189 
0.011167586166 0.011485811524 0.011738615407 0.011918058978 0.012018707415 0.012038037693 0.011976679632 0.011838458511 0.011630215962 
0.01136141624 0.011043567642 0.010689511747 0.0103126537 0.0099262021625 0.0095424877899 0.0091723836207 0.0088248258018 0.008506366011 
0.0080279227636 0.0074724190395 0.0069974737454 0.0065934163066 0.0062515195219 0.005964511448 0.0057262333753 0.0055310689964 0.0053737214948 
0.0052494806405 0.0051547087248 0.005087173306 0.0050460534048 0.0050317066712 0.0050453911407 0.005089057017 0.0051651844172 0.0052765759419 
0.0054260598049 0.0056161451095 0.0058487086227 0.0061247602323 0.0064442665671 0.0068059828449 0.0072072651437 0.007643880442 0.0081082692436 
0.0085903352879 0.0090802438687 0.0095666742731 0.010037182289 0.010478674975 0.01087798029 0.011222487702 0.011500825634 0.011703533155 
0.011823671222 0.01185731794 0.011803891232 0.011666258844 0.011450605594 0.011166063519 0.010824131425 0.010437941084 0.010021445592 
0.0095886037722 0.0091526409988 0.0087254135308 0.0083168952342 0.0079347301118 0.0081037149716 0.0074865969772 0.0069620462485 0.0065190072118 
0.0061473103004 0.0058377965848 0.0055819496012 0.0053717027218 0.0051997274997 0.0050599948184 0.0049482041958 0.0048618516384 0.004800006232 
0.0047630149133 0.0047522839301 0.0047701226945 0.0048195465314 0.0049039785279 0.0050268906167 0.0051914718585 0.0054003729765 0.0056554973203 
0.0059577777274 0.0063069033723 0.0067010283943 0.0071365214318 0.0076068154438 0.0081010714071 0.008609298829 0.0091197448167 0.0096192345749 
0.010093636553 0.010528445545 0.010909463228 0.011223541668 0.01145934149 0.011608044427 0.011663956616 0.011624939112 0.01149261536 
0.011272317351 0.010972768478 0.010605521341 0.010184208751 0.0097236798836 0.0092391079477 0.008745156723 0.0082552495733 0.0077809799509 
0.0073316148944 0.0080756018356 0.0073996305397 0.0068276244988 0.0063473983897 0.0059470750043 0.0056151670782 0.0053405708202 0.005112936267 
0.0049233425338 0.0047648708431 0.0046327795753 0.004524315737 0.0044384058259 0.0043754190322 0.0043370117358 0.0043259423674 0.0043457808623 
0.0044005475982 0.0044943771527 0.0046312584402 0.0048148118812 0.0050480275821 0.0053329243185 0.0056701674248 0.006058718124 0.0064955821946 
0.0069755448713 0.0074869193777 0.0080196473341 0.0085615752711 0.0090987549128 0.009615896608 0.010096968413 0.010525919111 0.010887490822 
0.011168070929 0.01135652183 0.011444918631 0.011429123591 0.011309132517 0.011089141527 0.010777316954 0.010385272887 0.0099273117756 
0.0094194941098 0.0088786420512 0.0083213678307 0.0077632022714 0.0072178742906 0.006696712775 0.0079290657777 0.0071976979381 0.0065813150016 
0.0060664328001 0.0056389868007 0.0052848168182 0.004990278942 0.0047431199158 0.0045332640624 0.0043531598507 0.0041976682601 0.0040637531544 
0.0039502231035 0.0038575712138 0.0037878015281 0.003744147789 0.0037307139643 0.0037521402685 0.0038133526128 0.0039193466333 0.0040749110015 
0.0042842418836 0.0045504904609 0.0048753243293 0.0052585738734 0.0056979715069 0.006190278476 0.006722802051 0.0072855880173 0.0078661531481 
0.0084497710026 0.009019915041 0.0095588645581 0.01004845937 0.010470976501 0.010810082934 0.011051803849 0.011185429566 0.011204278373 
0.011106230587 0.01089396331 0.010574845413 0.010160480456 0.009665943033 0.0091087711813 0.0085078353707 0.0078821821725 0.007249967662 
0.0066275402268 0.0060286822372 0.0076507692053 0.0068682879601 0.0062113228637 0.0056646399257 0.0052115456664 0.004835125664 0.0045194981633 
0.0042509412454 0.004018514698 0.0038140978035 0.0036321107566 0.0034692393844 0.0033242678701 0.0031979168089 0.0030925711254 0.0030119179923 
0.002960611911 0.0029440384397 0.0029681222888 0.003039061936 0.0031629281076 0.0033451669032 0.0035901014155 0.0039005041235 0.0042772460523 
0.0047190143707 0.0052248665253 0.0057814221588 0.0063789724366 0.0070048109056 0.0076434887538 0.0082772210512 0.0088864721445 0.0094507232661 
0.0099494081741 0.010362977463 0.010674030104 0.010868427118 0.010936289167 0.01087277046 0.010678514956 0.010359723427 0.0099277992879 
0.0093985969146 0.008791334674 0.0081272972065 0.0074284435789 0.0067160760892 0.006009649256 0.0053257800141 0.0072287335942 0.0064001808064 
0.0057068273277 0.0051311791125 0.0046537116939 0.0042549711858 0.0039172634434 0.0036257265547 0.0033686468032 0.0031372808658 0.0029255844796 
0.0027300416286 0.0025495180025 0.0023850013579 0.0022392306309 0.0021163472573 0.0020216660618 0.0019615156779 0.0019430071206 0.0019736439729 
0.002060810596 0.0022112417985 0.0024305513362 0.0027228162167 0.0030901841944 0.0035324997071 0.0040514406571 0.0046334959324 0.0052693808427 
0.0059463376392 0.0066483285596 0.0073563522217 0.0080489729286 0.0087030830228 0.0092948935136 0.0098011180443 0.010200286796 0.010474098734 
0.010608698385 0.01059574702 0.010433165592 0.010125439429 0.0096834239787 0.0091236393131 0.0084671103816 0.0077378710718 0.0069612771663 
0.006162324657 0.005364093195 0.004586435698 0.0066524351109 0.0057833787372 0.0050578996791 0.0044559041941 0.0039551596219 0.003534083383 
0.0031735447551 0.0028576772026 0.0025739399741 0.0023129117698 0.0020681347707 0.0018359953226 0.0016154875922 0.0014078336173 0.0012161038288 
0.0010449765153 0.00090060537337 0.00079043613667 0.00072285204765 0.00070667248673 0.0007506174541 0.000862823363 0.0010504053718 0.0013190144777 
0.0016723559995 0.0021116339922 0.0026409048486 0.0032482377213 0.0039245832838 0.0046573738227 0.0054302124977 0.0062230030587 0.007012391936 
0.0077725089925 0.0084760016108 0.0090953323034 0.0096042800415 0.0099795541178 0.010202394837 0.010260010222 0.010146689062 0.0098644342034 
0.0094230083493 0.0088393310561 0.0081362626234 0.0073408826084 0.0064824381958 0.0055902112361 0.0046914841002 0.0038097970707 0.0059127960513 
0.0050090261049 0.0042555229799 0.0036295726858 0.0031066209437 0.0026633858739 0.0022795026627 0.0019380678452 0.0016256332736 0.0013321210852 
0.001050759593 0.00077789485772 0.00051261401124 0.00025632405557 1.2473283595e-05 -0.00021357231458 -0.00041466308403 -0.00058216839666 -0.00070644899352 
-0.00077737879471 -0.00078481780896 -0.0007190391102 -0.00057116843645 -0.00033368340164 -9.4965545318e-07 0.00043024230016 0.00096332152878 0.0015941985479 
0.0023113560913 0.0031031200307 0.0039531337679 0.0048404453769 0.0057398781563 0.0066227301368 0.007457821555 0.0082128798147 0.0088562187256 
0.009358630631 0.0096953591914 0.0098479816125 0.0098059943706 0.0095678913 0.0091415556904 0.0085438424164 0.0077993400708 0.0069384074488 
0.0059946831372 0.0050023857365 0.0039936625141 0.0029962725094 0.0050021163728 0.0040693940217 0.0032917522491 0.0026441596844 0.0021002214797 
0.0016352487114 0.0012276618846 0.00085943302062 0.00051620033375 0.00018732326129 -0.00013421077988 -0.00045212574797 -0.00076731497235 -0.0010781821039 
-0.0013807850616 -0.0016689321805 -0.0019344265572 -0.0021674973022 -0.0023572990734 -0.0024923602575 -0.0025609748901 -0.0025516099219 -0.0024533916511 
-0.0022566609768 -0.0019535516368 -0.0015385090322 -0.001008584485 -0.00035906349465 0.00039670988606 0.0012483848687 0.0021800755122 0.0031703333245 
0.0041923995338 0.0052148097321 0.0062023988915 0.0071177283078 0.0079229209801 0.008581841838 0.0090624905505 0.0093394141655 0.0093958829304 
0.009225551562 0.0088333359587 0.0082352979509 0.0074574534084 0.0065335709546 0.0055021716362 0.0044031299415 0.0032742306452 0.0021480931948 
0.003914034667 0.0029579840942 0.0021599795347 0.0014931679014 0.00092971090384 0.00044361860116 1.2030313827e-05 -0.00038423079554 -0.00076035167099 
-0.0011274407877 -0.0014927626978 -0.0018601997105 -0.0022306643199 -0.0026022955274 -0.0029705399896 -0.0033283409906 -0.0036665241556 -0.0039742738079 
-0.0042395558237 -0.0044494617839 -0.0045905568725 -0.0046493132407 -0.0046126447893 -0.0044685041511 -0.0042065220604 -0.0038186842524 -0.0033000680193 
-0.002639980293 -0.0018507807484 -0.00094104183407 7.4359152056e-05 0.0011739935972 0.0023299358859 0.0035081923107 0.0046695884047 0.0057711785438 
0.0067682029568 0.0076165522104 0.0082756153137 0.0087113003136 0.008898924658 0.0088256195354 0.0084918704443 0.0079118701411 0.0071124908137 
0.0061308828441 0.0050109054294 0.003798878109 0.0025391290547 0.0012699188374 0.0026435927089 0.0016697365458 0.00085520375154 0.00017182603471 
-0.00040945374453 -0.00091593553413 -0.0013717852373 -0.0017972421595 -0.0022081961461 -0.0026162006325 -0.0030288600763 -0.0034502920863 -0.0038813974507 
-0.0043199552434 -0.004760767624 -0.0051960002575 -0.0056156403414 -0.006007905226 -0.0063595437944 -0.0066561098527 -0.0068823123142 -0.0070224760502 
-0.0070610899351 -0.0069834222096 -0.0067762325708 -0.0064286095821 -0.0059330223193 -0.0052733696339 -0.0044592406721 -0.0034965728951 -0.0023985069599 
-0.0011857513484 0.00011320506038 0.0014622578122 0.0028183745409 0.0041329161831 0.0053536588457 0.0064275091901 0.0073038136964 0.0079380466415 
0.0082955401585 0.0083548148526 0.0081100106524 0.0075719345885 0.0067673811394 0.0057366199862 0.0045292228057 0.0031988012021 0.001797281687 
0.00036951393373 0.0011874113277 0.00020126578537 -0.00062579284751 -0.001322860372 -0.0019201249048 -0.0024461923946 -0.0029264414486 -0.0033820193794 
-0.0038294467336 -0.0042807889482 -0.0047440942019 -0.0052237300985 -0.0057205162816 -0.0062318405397 -0.0067519548738 -0.0072724211216 -0.0077825246954 
-0.0082695543407 -0.0087190064036 -0.0091148366992 -0.0094398199566 -0.009676000556 -0.0098052232302 -0.0098097586224 -0.0096730763417 -0.0093807725813 
-0.0089216498483 -0.0082780920038 -0.0074512941337 -0.0064445339363 -0.0052684736686 -0.0039422436446 -0.0024940985473 -0.00096161442417 0.00060871101742 
0.0021625979756 0.0036399780627 0.0049778858567 0.0061141963569 0.0069920133871 0.0075643553638 0.0077986138761 0.0076801464793 0.0072143176289 
0.0064264338562 0.0053592843443 0.0040683733722 0.0026154783127 0.0010613344621 -0.00054147754862 -0.0004560836878 -0.0014489659189 -0.002284402132 
-0.0029921655446 -0.0036035080584 -0.0041482272101 -0.0046527222569 -0.005138913391 -0.0056239739631 -0.0061205936128 -0.0066373221957 -0.0071787399408 
-0.0077455556816 -0.0083348558348 -0.0089405377948 -0.0095537488949 -0.0101631766 -0.010755208054 -0.011314089471 -0.011822175186 -0.012260263447 
-0.012608003537 -0.012844395776 -0.012948441096 -0.012899967595 -0.012680606069 -0.012274862077 -0.011665856152 -0.010841717992 -0.0098035225542 
-0.0085582110271 -0.007122238592 -0.0055226022177 -0.0037974439346 -0.0019960294832 -0.00017790969387 0.0015889123707 0.0032309285854 0.0046732110038 
0.0058444933839 0.0066829032971 0.0071417540999 0.0071946091001 0.0068386908046 0.0060957985403 0.0050101700804 0.0036432033477 0.0020656850254 
0.00034851762897 -0.0014466284178 -0.002286476892 -0.0032805931501 -0.0041202624649 -0.004835744126 -0.0054591931152 -0.0060213595451 -0.0065494520766 
-0.0070661145894 -0.0075892679361 -0.0081323193952 -0.0087043227234 -0.0093100484585 -0.0099501731312 -0.010621686078 -0.011318363551 -0.012031103276 
-0.012748078445 -0.01345482975 -0.014134413791 -0.014767625358 -0.015333270444 -0.01580851506 -0.016169374342 -0.016391388523 -0.016450485776 
-0.01632398113 -0.015991622212 -0.01543634911 -0.014634272875 -0.013581454579 -0.012280109108 -0.010742828233 -0.0089941252442 -0.0070715189965 
-0.0050259996063 -0.0029216386757 -0.0008340875971 0.0011522578083 0.0029485553573 0.0044672260074 0.0056287743065 0.0063690972272 0.0066463507906 
0.0064461776091 0.0057840938943 0.0047040789036 0.0032729832367 0.0015713269374 -0.00031834096957 -0.002323667038 -0.0043012948397 -0.0052914209 
-0.0061314032251 -0.0068517415975 -0.0074851920075 -0.0080631539946 -0.0086134959551 -0.009159628584 -0.0097203315665 -0.010309776938 -0.01093751935 
-0.011608588799 -0.012323833709 -0.013080415064 -0.013872209496 -0.014690001618 -0.015521549022 -0.016351655959 -0.017162298473 -0.017932778103 
-0.018639917775 -0.019258369751 -0.019761101328 -0.020120080167 -0.020307141315 -0.020295043608 -0.020058772047 -0.019577436287 -0.018819512342 
-0.017772834615 -0.016433282049 -0.014808224734 -0.01291827488 -0.010798863139 -0.008501305391 -0.0060930264858 -0.0036565856384 -0.0012871644114 
0.00091174331999 0.0028345226304 0.0043813101862 0.005466950023 0.0060299904311 0.0060402432016 0.0055032583083 0.0044602208854 0.0029824072836 
0.0011605456634 -0.00090962321811 -0.0031432292671 -0.0064960871698 -0.0074776071375 -0.0083144348412 -0.0090369311353 -0.0096780378045 -0.010269519531 
-0.010839851091 -0.011413306197 -0.012009611666 -0.012643736236 -0.013325807635 -0.014061318755 -0.014851588 -0.015694225724 -0.016583400965 
-0.017509924365 -0.018461283789 -0.019421702337 -0.020372203362 -0.02129067984 -0.022152027058 -0.022928423872 -0.023589799364 -0.024104483225 
-0.024440015803 -0.024564164032 -0.024446236128 -0.024058795259 -0.023371960584 -0.022356215346 -0.021000770853 -0.0193066191 -0.017288976086 
-0.014979505849 -0.012428124847 -0.0097040072164 -0.0068953524827 -0.0041074559754 -0.0014586622428 0.00092606474671 0.002923925851 0.0044249291042 