# vtk DataFile Version 4.1
vtk output
ASCII
DATASET STRUCTURED_GRID
DIMENSIONS 51 51 1
POINTS 2601 float
0 0 0 0.02 0 0 0.04 0 0 
0.06 0 0 0.08 0 0 0.1 0 0 
0.12 0 0 0.14 0 0 0.16 0 0 
0.18 0 0 0.2 0 0 0.22 0 0 
0.24 0 0 0.26 0 0 0.28 0 0 
0.3 0 0 0.32 0 0 0.34 0 0 
0.36 0 0 0.38 0 0 0.4 0 0 
0.42 0 0 0.44 0 0 0.46 0 0 
0.48 0 0 0.5 0 0 0.52 0 0 
0.54 0 0 0.56 0 0 0.58 0 0 
0.6 0 0 0.62 0 0 0.64 0 0 
0.66 0 0 0.68 0 0 0.7 0 0 
0.72 0 0 0.74 0 0 0.76 0 0 
0.78 0 0 0.8 0 0 0.82 0 0 
0.84 0 0 0.86 0 0 0.88 0 0 
0.9 0 0 0.92 0 0 0.94 0 0 
0.96 0 0 0.98 0 0 1 0 0 
0 0.02 0 0.02 0.02 0 0.04 0.02 0 
0.06 0.02 0 0.08 0.02 0 0.1 0.02 0 
0.12 0.02 0 0.14 0.02 0 0.16 0.02 0 
0.18 0.02 0 0.2 0.02 0 0.22 0.02 0 
0.24 0.02 0 0.26 0.02 0 0.28 0.02 0 
0.3 0.02 0 0.32 0.02 0 0.34 0.02 0 
0.36 0.02 0 0.38 0.02 0 0.4 0.02 0 
0.42 0.02 0 0.44 0.02 0 0.46 0.02 0 
0.48 0.02 0 0.5 0.02 0 0.52 0.02 0 
0.54 0.02 0 0.56 0.02 0 0.58 0.02 0 
0.6 0.02 0 0.62 0.02 0 0.64 0.02 0 
0.66 0.02 0 0.68 0.02 0 0.7 0.02 0 
0.72 0.02 0 0.74 0.02 0 0.76 0.02 0 
0.78 0.02 0 0.8 0.02 0 0.82 0.02 0 
0.84 0.02 0 0.86 0.02 0 0.88 0.02 0 
0.9 0.02 0 0.92 0.02 0 0.94 0.02 0 
0.96 0.02 0 0.98 0.02 0 1 0.02 0 
0 0.04 0 0.02 0.04 0 0.04 0.04 0 
0.06 0.04 0 0.08 0.04 0 0.1 0.04 0 
0.12 0.04 0 0.14 0.04 0 0.16 0.04 0 
0.18 0.04 0 0.2 0.04 0 0.22 0.04 0 
0.24 0.04 0 0.26 0.04 0 0.28 0.04 0 
0.3 0.04 0 0.32 0.04 0 0.34 0.04 0 
0.36 0.04 0 0.38 0.04 0 0.4 0.04 0 
0.42 0.04 0 0.44 0.04 0 0.46 0.04 0 
0.48 0.04 0 0.5 0.04 0 0.52 0.04 0 
0.54 0.04 0 0.56 0.04 0 0.58 0.04 0 
0.6 0.04 0 0.62 0.04 0 0.64 0.04 0 
0.66 0.04 0 0.68 0.04 0 0.7 0.04 0 
0.72 0.04 0 0.74 0.04 0 0.76 0.04 0 
0.78 0.04 0 0.8 0.04 0 0.82 0.04 0 
0.84 0.04 0 0.86 0.04 0 0.88 0.04 0 
0.9 0.04 0 0.92 0.04 0 0.94 0.04 0 
0.96 0.04 0 0.98 0.04 0 1 0.04 0 
0 0.06 0 0.02 0.06 0 0.04 0.06 0 
0.06 0.06 0 0.08 0.06 0 0.1 0.06 0 
0.12 0.06 0 0.14 0.06 0 0.16 0.06 0 
0.18 0.06 0 0.2 0.06 0 0.22 0.06 0 
0.24 0.06 0 0.26 0.06 0 0.28 0.06 0 
0.3 0.06 0 0.32 0.06 0 0.34 0.06 0 
0.36 0.06 0 0.38 0.06 0 0.4 0.06 0 
0.42 0.06 0 0.44 0.06 0 0.46 0.06 0 
0.48 0.06 0 0.5 0.06 0 0.52 0.06 0 
0.54 0.06 0 0.56 0.06 0 0.58 0.06 0 
0.6 0.06 0 0.62 0.06 0 0.64 0.06 0 
0.66 0.06 0 0.68 0.06 0 0.7 0.06 0 
0.72 0.06 0 0.74 0.06 0 0.76 0.06 0 
0.78 0.06 0 0.8 0.06 0 0.82 0.06 0 
0.84 0.06 0 0.86 0.06 0 0.88 0.06 0 
0.9 0.06 0 0.92 0.06 0 0.94 0.06 0 
0.96 0.06 0 0.98 0.06 0 1 0.06 0 
0 0.08 0 0.02 0.08 0 0.04 0.08 0 
0.06 0.08 0 0.08 0.08 0 0.1 0.08 0 
0.12 0.08 0 0.14 0.08 0 0.16 0.08 0 
0.18 0.08 0 0.2 0.08 0 0.22 0.08 0 
0.24 0.08 0 0.26 0.08 0 0.28 0.08 0 
0.3 0.08 0 0.32 0.08 0 0.34 0.08 0 
0.36 0.08 0 0.38 0.08 0 0.4 0.08 0 
0.42 0.08 0 0.44 0.08 0 0.46 0.08 0 
0.48 0.08 0 0.5 0.08 0 0.52 0.08 0 
0.54 0.08 0 0.56 0.08 0 0.58 0.08 0 
0.6 0.08 0 0.62 0.08 0 0.64 0.08 0 
0.66 0.08 0 0.68 0.08 0 0.7 0.08 0 
0.72 0.08 0 0.74 0.08 0 0.76 0.08 0 
0.78 0.08 0 0.8 0.08 0 0.82 0.08 0 
0.84 0.08 0 0.86 0.08 0 0.88 0.08 0 
0.9 0.08 0 0.92 0.08 0 0.94 0.08 0 
0.96 0.08 0 0.98 0.08 0 1 0.08 0 
0 0.1 0 0.02 0.1 0 0.04 0.1 0 
0.06 0.1 0 0.08 0.1 0 0.1 0.1 0 
0.12 0.1 0 0.14 0.1 0 0.16 0.1 0 
0.18 0.1 0 0.2 0.1 0 0.22 0.1 0 
0.24 0.1 0 0.26 0.1 0 0.28 0.1 0 
0.3 0.1 0 0.32 0.1 0 0.34 0.1 0 
0.36 0.1 0 0.38 0.1 0 0.4 0.1 0 
0.42 0.1 0 0.44 0.1 0 0.46 0.1 0 
0.48 0.1 0 0.5 0.1 0 0.52 0.1 0 
0.54 0.1 0 0.56 0.1 0 0.58 0.1 0 
0.6 0.1 0 0.62 0.1 0 0.64 0.1 0 
0.66 0.1 0 0.68 0.1 0 0.7 0.1 0 
0.72 0.1 0 0.74 0.1 0 0.76 0.1 0 
0.78 0.1 0 0.8 0.1 0 0.82 0.1 0 
0.84 0.1 0 0.86 0.1 0 0.88 0.1 0 
0.9 0.1 0 0.92 0.1 0 0.94 0.1 0 
0.96 0.1 0 0.98 0.1 0 1 0.1 0 
0 0.12 0 0.02 0.12 0 0.04 0.12 0 
0.06 0.12 0 0.08 0.12 0 0.1 0.12 0 
0.12 0.12 0 0.14 0.12 0 0.16 0.12 0 
0.18 0.12 0 0.2 0.12 0 0.22 0.12 0 
0.24 0.12 0 0.26 0.12 0 0.28 0.12 0 
0.3 0.12 0 0.32 0.12 0 0.34 0.12 0 
0.36 0.12 0 0.38 0.12 0 0.4 0.12 0 
0.42 0.12 0 0.44 0.12 0 0.46 0.12 0 
0.48 0.12 0 0.5 0.12 0 0.52 0.12 0 
0.54 0.12 0 0.56 0.12 0 0.58 0.12 0 
0.6 0.12 0 0.62 0.12 0 0.64 0.12 0 
0.66 0.12 0 0.68 0.12 0 0.7 0.12 0 
0.72 0.12 0 0.74 0.12 0 0.76 0.12 0 
0.78 0.12 0 0.8 0.12 0 0.82 0.12 0 
0.84 0.12 0 0.86 0.12 0 0.88 0.12 0 
0.9 0.12 0 0.92 0.12 0 0.94 0.12 0 
0.96 0.12 0 0.98 0.12 0 1 0.12 0 
0 0.14 0 0.02 0.14 0 0.04 0.14 0 
0.06 0.14 0 0.08 0.14 0 0.1 0.14 0 
0.12 0.14 0 0.14 0.14 0 0.16 0.14 0 
0.18 0.14 0 0.2 0.14 0 0.22 0.14 0 
0.24 0.14 0 0.26 0.14 0 0.28 0.14 0 
0.3 0.14 0 0.32 0.14 0 0.34 0.14 0 
0.36 0.14 0 0.38 0.14 0 0.4 0.14 0 
0.42 0.14 0 0.44 0.14 0 0.46 0.14 0 
0.48 0.14 0 0.5 0.14 0 0.52 0.14 0 
0.54 0.14 0 0.56 0.14 0 0.58 0.14 0 
0.6 0.14 0 0.62 0.14 0 0.64 0.14 0 
0.66 0.14 0 0.68 0.14 0 0.7 0.14 0 
0.72 0.14 0 0.74 0.14 0 0.76 0.14 0 
0.78 0.14 0 0.8 0.14 0 0.82 0.14 0 
0.84 0.14 0 0.86 0.14 0 0.88 0.14 0 
0.9 0.14 0 0.92 0.14 0 0.94 0.14 0 
0.96 0.14 0 0.98 0.14 0 1 0.14 0 
0 0.16 0 0.02 0.16 0 0.04 0.16 0 
0.06 0.16 0 0.08 0.16 0 0.1 0.16 0 
0.12 0.16 0 0.14 0.16 0 0.16 0.16 0 
0.18 0.16 0 0.2 0.16 0 0.22 0.16 0 
0.24 0.16 0 0.26 0.16 0 0.28 0.16 0 
0.3 0.16 0 0.32 0.16 0 0.34 0.16 0 
0.36 0.16 0 0.38 0.16 0 0.4 0.16 0 
0.42 0.16 0 0.44 0.16 0 0.46 0.16 0 
0.48 0.16 0 0.5 0.16 0 0.52 0.16 0 
0.54 0.16 0 0.56 0.16 0 0.58 0.16 0 
0.6 0.16 0 0.62 0.16 0 0.64 0.16 0 
0.66 0.16 0 0.68 0.16 0 0.7 0.16 0 
0.72 0.16 0 0.74 0.16 0 0.76 0.16 0 
0.78 0.16 0 0.8 0.16 0 0.82 0.16 0 
0.84 0.16 0 0.86 0.16 0 0.88 0.16 0 
0.9 0.16 0 0.92 0.16 0 0.94 0.16 0 
0.96 0.16 0 0.98 0.16 0 1 0.16 0 
0 0.18 0 0.02 0.18 0 0.04 0.18 0 
0.06 0.18 0 0.08 0.18 0 0.1 0.18 0 
0.12 0.18 0 0.14 0.18 0 0.16 0.18 0 
0.18 0.18 0 0.2 0.18 0 0.22 0.18 0 
0.24 0.18 0 0.26 0.18 0 0.28 0.18 0 
0.3 0.18 0 0.32 0.18 0 0.34 0.18 0 
0.36 0.18 0 0.38 0.18 0 0.4 0.18 0 
0.42 0.18 0 0.44 0.18 0 0.46 0.18 0 
0.48 0.18 0 0.5 0.18 0 0.52 0.18 0 
0.54 0.18 0 0.56 0.18 0 0.58 0.18 0 
0.6 0.18 0 0.62 0.18 0 0.64 0.18 0 
0.66 0.18 0 0.68 0.18 0 0.7 0.18 0 
0.72 0.18 0 0.74 0.18 0 0.76 0.18 0 
0.78 0.18 0 0.8 0.18 0 0.82 0.18 0 
0.84 0.18 0 0.86 0.18 0 0.88 0.18 0 
0.9 0.18 0 0.92 0.18 0 0.94 0.18 0 
0.96 0.18 0 0.98 0.18 0 1 0.18 0 
0 0.2 0 0.02 0.2 0 0.04 0.2 0 
0.06 0.2 0 0.08 0.2 0 0.1 0.2 0 
0.12 0.2 0 0.14 0.2 0 0.16 0.2 0 
0.18 0.2 0 0.2 0.2 0 0.22 0.2 0 
0.24 0.2 0 0.26 0.2 0 0.28 0.2 0 
0.3 0.2 0 0.32 0.2 0 0.34 0.2 0 
0.36 0.2 0 0.38 0.2 0 0.4 0.2 0 
0.42 0.2 0 0.44 0.2 0 0.46 0.2 0 
0.48 0.2 0 0.5 0.2 0 0.52 0.2 0 
0.54 0.2 0 0.56 0.2 0 0.58 0.2 0 
0.6 0.2 0 0.62 0.2 0 0.64 0.2 0 
0.66 0.2 0 0.68 0.2 0 0.7 0.2 0 
0.72 0.2 0 0.74 0.2 0 0.76 0.2 0 
0.78 0.2 0 0.8 0.2 0 0.82 0.2 0 
0.84 0.2 0 0.86 0.2 0 0.88 0.2 0 
0.9 0.2 0 0.92 0.2 0 0.94 0.2 0 
0.96 0.2 0 0.98 0.2 0 1 0.2 0 
0 0.22 0 0.02 0.22 0 0.04 0.22 0 
0.06 0.22 0 0.08 0.22 0 0.1 0.22 0 
0.12 0.22 0 0.14 0.22 0 0.16 0.22 0 
0.18 0.22 0 0.2 0.22 0 0.22 0.22 0 
0.24 0.22 0 0.26 0.22 0 0.28 0.22 0 
0.3 0.22 0 0.32 0.22 0 0.34 0.22 0 
0.36 0.22 0 0.38 0.22 0 0.4 0.22 0 
0.42 0.22 0 0.44 0.22 0 0.46 0.22 0 
0.48 0.22 0 0.5 0.22 0 0.52 0.22 0 
0.54 0.22 0 0.56 0.22 0 0.58 0.22 0 
0.6 0.22 0 0.62 0.22 0 0.64 0.22 0 
0.66 0.22 0 0.68 0.22 0 0.7 0.22 0 
0.72 0.22 0 0.74 0.22 0 0.76 0.22 0 
0.78 0.22 0 0.8 0.22 0 0.82 0.22 0 
0.84 0.22 0 0.86 0.22 0 0.88 0.22 0 
0.9 0.22 0 0.92 0.22 0 0.94 0.22 0 
0.96 0.22 0 0.98 0.22 0 1 0.22 0 
0 0.24 0 0.02 0.24 0 0.04 0.24 0 
0.06 0.24 0 0.08 0.24 0 0.1 0.24 0 
0.12 0.24 0 0.14 0.24 0 0.16 0.24 0 
0.18 0.24 0 0.2 0.24 0 0.22 0.24 0 
0.24 0.24 0 0.26 0.24 0 0.28 0.24 0 
0.3 0.24 0 0.32 0.24 0 0.34 0.24 0 
0.36 0.24 0 0.38 0.24 0 0.4 0.24 0 
0.42 0.24 0 0.44 0.24 0 0.46 0.24 0 
0.48 0.24 0 0.5 0.24 0 0.52 0.24 0 
0.54 0.24 0 0.56 0.24 0 0.58 0.24 0 
0.6 0.24 0 0.62 0.24 0 0.64 0.24 0 
0.66 0.24 0 0.68 0.24 0 0.7 0.24 0 
0.72 0.24 0 0.74 0.24 0 0.76 0.24 0 
0.78 0.24 0 0.8 0.24 0 0.82 0.24 0 
0.84 0.24 0 0.86 0.24 0 0.88 0.24 0 
0.9 0.24 0 0.92 0.24 0 0.94 0.24 0 
0.96 0.24 0 0.98 0.24 0 1 0.24 0 
0 0.26 0 0.02 0.26 0 0.04 0.26 0 
0.06 0.26 0 0.08 0.26 0 0.1 0.26 0 
0.12 0.26 0 0.14 0.26 0 0.16 0.26 0 
0.18 0.26 0 0.2 0.26 0 0.22 0.26 0 
0.24 0.26 0 0.26 0.26 0 0.28 0.26 0 
0.3 0.26 0 0.32 0.26 0 0.34 0.26 0 
0.36 0.26 0 0.38 0.26 0 0.4 0.26 0 
0.42 0.26 0 0.44 0.26 0 0.46 0.26 0 
0.48 0.26 0 0.5 0.26 0 0.52 0.26 0 
0.54 0.26 0 0.56 0.26 0 0.58 0.26 0 
0.6 0.26 0 0.62 0.26 0 0.64 0.26 0 
0.66 0.26 0 0.68 0.26 0 0.7 0.26 0 
0.72 0.26 0 0.74 0.26 0 0.76 0.26 0 
0.78 0.26 0 0.8 0.26 0 0.82 0.26 0 
0.84 0.26 0 0.86 0.26 0 0.88 0.26 0 
0.9 0.26 0 0.92 0.26 0 0.94 0.26 0 
0.96 0.26 0 0.98 0.26 0 1 0.26 0 
0 0.28 0 0.02 0.28 0 0.04 0.28 0 
0.06 0.28 0 0.08 0.28 0 0.1 0.28 0 
0.12 0.28 0 0.14 0.28 0 0.16 0.28 0 
0.18 0.28 0 0.2 0.28 0 0.22 0.28 0 
0.24 0.28 0 0.26 0.28 0 0.28 0.28 0 
0.3 0.28 0 0.32 0.28 0 0.34 0.28 0 
0.36 0.28 0 0.38 0.28 0 0.4 0.28 0 
0.42 0.28 0 0.44 0.28 0 0.46 0.28 0 
0.48 0.28 0 0.5 0.28 0 0.52 0.28 0 
0.54 0.28 0 0.56 0.28 0 0.58 0.28 0 
0.6 0.28 0 0.62 0.28 0 0.64 0.28 0 
0.66 0.28 0 0.68 0.28 0 0.7 0.28 0 
0.72 0.28 0 0.74 0.28 0 0.76 0.28 0 
0.78 0.28 0 0.8 0.28 0 0.82 0.28 0 
0.84 0.28 0 0.86 0.28 0 0.88 0.28 0 
0.9 0.28 0 0.92 0.28 0 0.94 0.28 0 
0.96 0.28 0 0.98 0.28 0 1 0.28 0 
0 0.3 0 0.02 0.3 0 0.04 0.3 0 
0.06 0.3 0 0.08 0.3 0 0.1 0.3 0 
0.12 0.3 0 0.14 0.3 0 0.16 0.3 0 
0.18 0.3 0 0.2 0.3 0 0.22 0.3 0 
0.24 0.3 0 0.26 0.3 0 0.28 0.3 0 
0.3 0.3 0 0.32 0.3 0 0.34 0.3 0 
0.36 0.3 0 0.38 0.3 0 0.4 0.3 0 
0.42 0.3 0 0.44 0.3 0 0.46 0.3 0 
0.48 0.3 0 0.5 0.3 0 0.52 0.3 0 
0.54 0.3 0 0.56 0.3 0 0.58 0.3 0 
0.6 0.3 0 0.62 0.3 0 0.64 0.3 0 
0.66 0.3 0 0.68 0.3 0 0.7 0.3 0 
0.72 0.3 0 0.74 0.3 0 0.76 0.3 0 
0.78 0.3 0 0.8 0.3 0 0.82 0.3 0 
0.84 0.3 0 0.86 0.3 0 0.88 0.3 0 
0.9 0.3 0 0.92 0.3 0 0.94 0.3 0 
0.96 0.3 0 0.98 0.3 0 1 0.3 0 
0 0.32 0 0.02 0.32 0 0.04 0.32 0 
0.06 0.32 0 0.08 0.32 0 0.1 0.32 0 
0.12 0.32 0 0.14 0.32 0 0.16 0.32 0 
0.18 0.32 0 0.2 0.32 0 0.22 0.32 0 
0.24 0.32 0 0.26 0.32 0 0.28 0.32 0 
0.3 0.32 0 0.32 0.32 0 0.34 0.32 0 
0.36 0.32 0 0.38 0.32 0 0.4 0.32 0 
0.42 0.32 0 0.44 0.32 0 0.46 0.32 0 
0.48 0.32 0 0.5 0.32 0 0.52 0.32 0 
0.54 0.32 0 0.56 0.32 0 0.58 0.32 0 
[...]
CELL_DATA 2500
FIELD FieldData 1
pressure 1 2500 double
0.006186699855 0.0061166206891 0.0059228411465 0.0056462592899 0.0053279429078 0.005000725299 0.0046886951279 0.0044088297944 0.0041728663862 
0.0039888428262 0.003862223737 0.003796667273 0.0037945288492 0.0038571937497 0.0039853045529 0.0041789163991 0.0044375864905 0.004760391335 
0.0051458658135 0.0055918678365 0.0060953858416 0.0066523175621 0.0072572535519 0.007903295615 0.008581927711 0.009282937711 0.0099940142086 
0.010701924344 0.011392717958 0.012051851074 0.012664612924 0.013216650473 0.013694558575 0.014086503596 0.014382845338 0.014576719945 
0.014664547065 0.014646428387 0.014526412154 0.014312609553 0.01401716319 0.013656083513 0.01324898291 0.0128187432 0.012391148953 
0.011994388053 0.011658288529 0.0114123921 0.011280786987 0.011268379562 0.0062506035981 0.006182195838 0.0060193507367 0.005792035648 
0.0055290169509 0.0052553222952 0.0049911745967 0.004752116115 0.0045496451719 0.0043919810795 0.0042847886999 0.0042318071535 0.0042353747784 
0.0042968512725 0.0044169318842 0.0045958450578 0.004833431198 0.0051291128657 0.0054817787758 0.0058896117575 0.0063498928965 0.0068588110835 
0.007411301501 0.0080009290683 0.0086198270126 0.0092587034812 0.0099059606735 0.010549612759 0.011177089297 0.011775311152 0.012331100784 
0.01283166417 0.013265125962 0.013621090548 0.013891196947 0.014069633591 0.01415357978 0.014143543923 0.014043575423 0.013861336792 
0.013608034156 0.013298215853 0.012949456691 0.012581944206 0.012217964381 0.011881232348 0.011595872867 0.011384847482 0.011267322205 
0.011255962368 0.0064434602563 0.0063465162495 0.00618220809 0.0059716655254 0.0057358934799 0.0054941484375 0.0052627440423 0.0050546081154 
0.0048794282062 0.0047441222481 0.0046534308692 0.0046105079184 0.0046174367769 0.0046756263074 0.0047860607598 0.0049494024108 0.0051659703205 
0.0054356335472 0.0057576590631 0.0061305470876 0.0065518751058 0.0070181623801 0.0075247613867 0.0080657812619 0.0086340514871 0.0092211425459 
0.009815970911 0.010407589883 0.010984480956 0.011534633523 0.012045941373 0.012506662242 0.012905923076 0.013234245817 0.013484063759 
0.01365019632 0.013730250047 0.013724916446 0.013638143478 0.013477166517 0.013252395227 0.012977163125 0.012667353615 0.012340917001 
0.012017283837 0.011716659478 0.011459157621 0.011263808493 0.011147665809 0.011126165424 0.0067287316511 0.0065781486238 0.0063875816771 
0.0061710225114 0.0059434157205 0.0057187020675 0.0055087058946 0.0053227463024 0.0051677778044 0.0050488046242 0.0049693792933 0.0049320721209 
0.0049388446316 0.0049912903867 0.0050907366913 0.0052382302453 0.0054344477396 0.0056795721963 0.0059731631822 0.0063140333823 0.0067001330631 
0.0071284414324 0.0075948667796 0.0080941634334 0.0086198801397 0.0091643602336 0.0097169265658 0.010267422883 0.010805069498 0.01131856716 
0.011796483349 0.012227699958 0.012601904258 0.012910098875 0.013145101637 0.013302003059 0.013378548131 0.013375411543 0.013296341548 
0.013148156729 0.012940590976 0.012685993209 0.012398897577 0.012095485708 0.011792963778 0.011508876848 0.011260393418 0.01106365099 
0.010933373622 0.010883208539 0.0070645598482 0.0068461326323 0.0066146186172 0.0063782892217 0.0061463543215 0.0059273566075 0.0057284581356 
0.0055553028918 0.0054121961364 0.0053024025195 0.0052284558349 0.0051924249163 0.0051961008564 0.0052410886321 0.0053288103428 0.0054604472565 
0.0056368516721 0.0058584487308 0.0061251338393 0.0064361621385 0.0067900263369 0.007184325754 0.0076156367506 0.0080794007637 0.008569848894 
0.00907998195 0.0095994501648 0.010118630324 0.010627221144 0.011114338984 0.01156889558 0.01198003978 0.012337645416 0.012632821137 
0.012858412272 0.013009460468 0.013083585043 0.013081252337 0.013005905586 0.012863937498 0.012664500088 0.012419159475 0.012141415944 
0.011846120086 0.011548823181 0.011265105725 0.011009936697 0.010797132767 0.010639004098 0.010546207294 0.0074155321778 0.0071243372468 
0.0068449199185 0.0065804698534 0.0063348222179 0.0061116382283 0.0059140792172 0.0057447638459 0.0056058345413 0.0054990606387 0.0054259580472 
0.0053879054168 0.0053862287792 0.0054222356604 0.0054971996358 0.0056123091552 0.0057685923123 0.0059668201414 0.0062073851938 0.0064901538469 
0.0068142984922 0.0071781232451 0.0075789006603 0.0080127370876 0.0084744821277 0.0089576950444 0.0094523250273 0.0099490461642 0.010437836673 
0.010907991294 0.011348491875 0.011748449099 0.012097597685 0.012386819913 0.012608665412 0.012757829771 0.012831552359 0.012829895997 
0.01275587753 0.012615428892 0.01241718223 0.012172088288 0.01189289326 0.011593513429 0.011288357005 0.010991647875 0.010716804918 
0.010475918775 0.010279329841 0.01013519068 0.0077541449884 0.0073902384811 0.007059611761 0.0067610770386 0.0064941091383 0.0062585781058 
0.0060545720435 0.0058822773109 0.0057418996258 0.0056336504783 0.0055578015146 0.005514771534 0.0055051993651 0.0055299732866 0.0055902114133 
0.0056871985874 0.0058222837778 0.0059967389387 0.006211582134 0.0064673743317 0.0067640059239 0.0071004907145 0.0074747829363 0.0078836288527 
0.0083224619995 0.0087853508969 0.0092625811514 0.0097449097016 0.010222442437 0.010684457572 0.011119772512 0.01151719222 0.011866020995 
0.012156611 0.012380912961 0.012532988245 0.012609438941 0.012609714336 0.012536258583 0.012394475749 0.012192504001 0.011940808976 
0.011651625633 0.011338294808 0.011014552442 0.010693833036 0.01038864065 0.010110015479 0.009867072845 0.0096665004213 0.0080577415177 
0.0076224947258 0.0072386997584 0.006901897269 0.0066083907152 0.0063551673283 0.0061397467891 0.0059600224335 0.005814175736 0.0057006985984 
0.005618491876 0.0055669749578 0.0055461523236 0.0055566152173 0.0055994812345 0.0056762811778 0.0057888000582 0.005938878581 0.0061281853231 
0.0063579748824 0.0066288486636 0.0069405314812 0.0072916726918 0.0076796777494 0.0081005771831 0.0085489433735 0.0090154932928 0.0094908572829 
0.0099651492315 0.010427468732 0.010866267629 0.01126980962 0.011626704574 0.011926489937 0.012160222657 0.01232103789 0.012404627205 
0.012409589766 0.012337616063 0.012193475684 0.011984797731 0.011721653385 0.011415972453 0.011080845464 0.01072977637 0.010375953947 
0.010031598431 0.0097074105955 0.0094121008519 0.0091519078757 0.0083056129891 0.0078005873597 0.0073630058089 0.0069860959274 0.006663639061 
0.006390031088 0.0061602504832 0.0059698234838 0.0058148696926 0.0056922236944 0.0055995717889 0.0055355410976 0.0054997110364 0.0054925503215 
0.005515295863 0.0055697863712 0.0056582580128 0.0057831093259 0.0059466462955 0.006150820946 0.0063969748902 0.0066855952244 0.0070160877648 
0.0073865736771 0.0077937198025 0.0082326172354 0.0086945589262 0.0091698401091 0.0096484954987 0.01011931993 0.010570234178 0.010988755936 
0.01136255865 0.011680090739 0.011931217512 0.012107839519 0.012204435882 0.01221848039 0.012150683461 0.012005025135 0.0117885626 
0.011511019159 0.011184186904 0.010821198276 0.010435737799 0.010041269193 0.0096503412171 0.0092740058158 0.0089213359293 0.0085989742132 
0.0084784065709 0.0079059640185 0.0074158062241 0.0069991531791 0.006647288384 0.0063519430766 0.0061055207457 0.0059012727577 0.0057334783357 
0.0055976069064 0.0054904182001 0.0054099761191 0.0053555835244 0.0053276604676 0.005327583489 0.0053574922146 0.0054200646329 0.0055182648612 
0.0056550717141 0.0058331978411 0.006054807156 0.0063212365085 0.0066327282123 0.0069881835527 0.007384951824 0.0078186716724 0.0082814159318 
0.0087629531487 0.0092531947985 0.0097405480383 0.010212275156 0.010654971863 0.011055149614 0.011399895737 0.011677573377 0.011878512849 
0.011995638583 0.012024972994 0.011965962576 0.011821582954 0.01159819881 0.011305180081 0.010954304353 0.010559002171 0.010133521629 
0.0096920952972 0.0092481821307 0.0088138284925 0.0083991485368 0.0080118739312 0.0085587927449 0.0079225371986 0.0073824383439 0.0069275250512 
0.006546445359 0.0062282815502 0.0059630481022 0.0057420258805 0.005557986886 0.0054053164015 0.0052800352182 0.0051797403233 0.0051034921196 
0.0050516692795 0.0050257965692 0.0050283412212 0.0050624744804 0.0051318011425 0.0052400648373 0.0053908376391 0.0055872014302 0.0058314287013 
0.0061246726466 0.0064666799222 0.006855542484 0.0072875051789 0.0077557016118 0.0082492214058 0.0087578596587 0.009269599666 0.0097709559483 
0.010247453036 0.010684228092 0.011066733289 0.011381500688 0.011616919798 0.0117639678 0.011816826848 0.011773324402 0.011635142459 
0.011407760683 0.011100125509 0.010724069102 0.010293533484 0.0098236798233 0.0093299740693 0.0088273332385 0.0083293903752 0.0078478942029 
0.007392211587 0.0085315776267 0.0078358741601 0.0072489197346 0.0067573858598 0.0063473535395 0.0060054825316 0.0057197001823 0.0054796032613 
0.0052766646518 0.0051042995198 0.0049578341647 0.0048344153861 0.0047328861422 0.0046536350773 0.0045984138916 0.0045701150683 0.0045725089915 
0.0046099461562 0.0046870329744 0.004808289226 0.0049777947055 0.0051988338002 0.0054735490404 0.0058026175292 0.0061849670567 0.0066175514927 
0.0070949404439 0.0076054394224 0.0081387884368 0.008682559681 0.0092224707031 0.0097428550242 0.010227279177 0.010659285686 0.011023227327 
0.011305142907 0.0114936111 0.011580509598 0.011561604603 0.011436902764 0.011210715423 0.01089141299 0.010490882336 0.010023737075 
0.0095063620289 0.008955891377 0.008389218969 0.0078221170566 0.0072684999158 0.0067398219246 0.0083829228993 0.0076321925671 0.0070013869093 
0.0064749061801 0.0060364863561 0.0056706015359 0.0053632796159 0.005102543239 0.0048786096635 0.0046839384389 0.0045131875291 0.0043631158879 
0.0042324491964 0.0041217090233 0.004033000224 0.0039697555905 0.0039364425459 0.0039382391748 0.0039806862174 0.0040693204694 0.0042092954907 
0.0044049972845 0.0046596648717 0.0049750285771 0.0053509823584 0.0057853105922 0.0062745643508 0.0068061416524 0.0073698701683 0.0079529804718 
0.0085403915344 0.0091151644988 0.0096591239357 0.010153634909 0.010580507079 0.010922978344 0.01116671253 0.011300731304 0.011318192976 
0.011216933171 0.010999697136 0.01067402093 0.010251756878 0.0097482820396 0.0091814688683 0.008570525564 0.007934821919 0.0072928010293 
0.0066610410308 0.0060534845228 0.0080996373561 0.007298229524 0.0066266927243 0.0060673352093 0.0056016897142 0.0052121252285 0.0048827968105 
0.0046001556305 0.0043531790549 0.0041334268989 0.0039349912018 0.0037543778167 0.0035903371895 0.0034436504913 0.0033168757033 0.003214060224 
0.0031404262092 0.0031020322857 0.0031054130563 0.0031571977827 0.0032637115912 0.0034305648981 0.0036622392396 0.0039616811549 0.0043299203024 
0.0047657330546 0.0052681384454 0.0058237369606 0.0064226351242 0.007051844079 0.0076955394049 0.0083354806095 0.0089516178961 0.0095228897493 
0.010028191733 0.010447473852 0.010762900891 0.010959989615 0.011028622037 0.010963829308 0.01076625008 0.010442192366 0.010003268157 
0.0094656205568 0.0088488152164 0.0081745103485 0.0074650419746 0.0067420565518 0.0060252928132 0.0053315683134 0.0076692437656 0.0068218134954 
0.006113145604 0.0055235186951 0.005032256852 0.0046196061887 0.00426785112 0.0039619164351 0.0036896337287 0.0034417944957 0.0032120696299 
0.0029968440935 0.0027949952253 0.0026076324137 0.002437810778 0.0022902263853 0.0021708942752 0.0020868062163 0.0020455643479 0.0020549890352 
0.0021227023118 0.0022556907722 0.0024598543625 0.0027395511569 0.0030971538396 0.0035326476336 0.0040477155952 0.0046288072654 0.0052664847437 
0.0059477088145 0.0066560377398 0.0073719707573 0.0080735090043 0.0087369515373 0.0093379165732 0.0098525526057 0.010258876571 0.010538148562 
0.010676168758 0.010664367773 0.010500562192 0.010189266862 0.0097414960318 0.0091740432382 0.0085082961306 0.0077687042716 0.0069810606742 
0.0061707703411 0.0053612582962 0.004572623553 0.0070805205766 0.006192309069 0.0054505960024 0.004833588466 0.0043183839125 0.0038831426917 
0.0035083703569 0.0031775956598 0.0028776486862 0.0025986855998 0.0023340592862 0.0020801001088 0.0018358473971 0.001602757049 0.0013843989178 
0.0011861466962 0.0010148550003 0.00087851562934 0.00078588655726 0.00074609053053 0.00076818297285 0.0008606909369 0.0010311271644 0.0012854855739 
0.0016277240521 0.0020592314273 0.0025843111309 0.0031906179399 0.0038691695855 0.0046071152493 0.0053876245082 0.0061900747263 0.0069905255928 
0.0077624844518 0.0084779595013 0.0091087763072 0.0096281021831 0.010012087345 0.010241496611 0.010303177717 0.01019119979 0.0099075056036 
0.0094619586155 0.0088717299675 0.0081600536668 0.0073544652717 0.0064847109611 0.0055805518693 0.0046696832011 0.0037759429096 0.0063238517782 
0.0054005751006 0.0046301065859 0.0039885943936 0.0034510053281 0.0029935579879 0.0025951384436 0.0022380246031 0.0019081569504 0.0015951282442 
0.0012920096572 0.00099508987768 0.00070357529617 0.0004192788807 0.0001463086822 -0.00010924598702 -0.00033963937329 -0.00053581454802 -0.0006877763803 
-0.00078499696311 -0.00081685651264 -0.00077312096192 -0.00064445454665 -0.00042296258643 -0.00010276069044 0.000319408969 0.00084850384411 0.001477958583 
0.002197609234 0.0029953290516 0.0038542949534 0.0047530289717 0.0056657672436 0.00656316387 0.0074133461166 0.0081833162211 0.008840659404 
0.0093554728206 0.0097023814771 0.0098624622844 0.0098248664406 0.0095879244488 0.0091595468748 0.0085568014568 0.0078046484128 0.0069339346403 
0.0059788586189 0.0049741933175 0.0039525737078 0.0029421149755 0.0053912003617 0.0044387794107 0.0036438556565 0.0029806691095 0.0024222503314 
0.0019430589384 0.0015205061657 0.0011357165743 0.00077379636702 0.00042380042606 7.852813145e-05 -0.00026576691685 -0.00060970014384 -0.00095108344409 
-0.0012852471466 -0.0016053595696 -0.0019027528793 -0.0021672648988 -0.0023876058285 -0.0025517580766 -0.0026474164962 -0.0026624740627 -0.0025855534555 
-0.0024065769776 -0.0021173493038 -0.0017120721453 -0.0011874927948 -0.00053938884437 0.00021913788752 0.0010774717191 0.0020193294039 0.003022775139 
0.0040604720287 0.0051002833701 0.0061062850859 0.0070402162116 0.0078633517469 0.0085387274976 0.0090335825247 0.0093218189243 0.0093862229023 
0.0092201610952 0.0088284778309 0.0082273838432 0.0074432454231 0.0065103398442 0.0054678066192 0.0043561537061 0.0032137361165 0.0020735945786 
0.0042760319107 0.0033004782024 0.0024854516837 0.0018035170304 0.0012259732291 0.00072567530792 0.0002786631217 -0.00013502771969 -0.00053108526538 
-0.00092096554351 -0.0013121207309 -0.0017083166973 -0.0021099804988 -0.0025145460152 -0.0029167866717 -0.0033091372184 -0.0036820129795 -0.0040241378602 
-0.0043228937927 -0.0045647047619 -0.0047354677371 -0.0048210401763 -0.0048077893098 -0.0046832020481 -0.0044365447483 -0.0040595488741 -0.0035470982167 
-0.0028889517984 -0.0020969477397 -0.0011799768154 -0.00015326513257 0.00096130587495 0.0021352299273 0.0033338024054 0.00451702391 0.0056410415791 
0.0066601461115 0.0075292803639 0.0082069359554 0.008658224197 0.0088578203211 0.0087924156121 0.0084622947092 0.0078817068599 0.0070778306318 
0.0060883308703 0.0049577379655 0.0037330852991 0.0024593599771 0.0011753153851 0.0029734671489 0.0019809306133 0.0011503032293 0.00045270720819 
-0.00014210884222 -0.00066275707643 -0.0011344657363 -0.001578208776 -0.0020104079982 -0.0024429886062 -0.0028836329812 -0.0033361264197 -0.0038007279401 
-0.0042745305199 -0.0047517977488 -0.0052242781978 -0.0056815071249 -0.0061111100859 -0.0064991256861 -0.0068303654544 -0.0070888277603 -0.0072581801113 
-0.0073223208527 -0.0072660280961 -0.0070757035946 -0.0067402353153 -0.0062520853891 -0.0055946243779 -0.0047777038559 -0.0038073243434 -0.0026968820163 
-0.0014675137794 -0.0001483021097 0.0012239054811 0.0026052088897 0.0039460069874 0.0051930513142 0.0062921983564 0.0071917636286 0.0078462646958 
0.0082202147838 0.0082915179593 0.0080539543583 0.0075182654476 0.0067114808445 0.0056743700466 0.0044572166896 0.0031144235037 0.0016986684609 
0.00025537151982 0.0014805742709 0.00047734185027 -0.00036427952102 -0.0010743807271 -0.0016845639305 -0.0022247377746 -0.0027212582004 -0.0031960018818 
-0.0036660555348 -0.0041437848171 -0.0046371114725 -0.0051498812004 -0.0056822493411 -0.0062310459346 -0.0067901059509 -0.0073505662745 -0.0079011411034 
-0.0084283936638 -0.0089170252821 -0.0093502036029 -0.0097099507582 -0.0099776102565 -0.010134408832 -0.010162126573 -0.010043885743 -0.0097650654575 
-0.009314329178 -0.0086735968378 -0.0078442090653 -0.0068293766033 -0.0056399978694 -0.0042956390973 -0.0028251592323 -0.0012668843302 0.00033181143473 
0.0019156630068 0.0034235263596 0.0047912985729 0.0059556971614 0.0068587084458 0.0074523459989 0.0077031905495 0.0075960548962 0.0071360847542 
0.0063487179301 0.0052772007029 0.0039777705581 0.0025130643152 0.00094466172398 -0.00067420383935 -0.00020344998406 -0.0012111232055 -0.0020591993342 
-0.0027787025357 -0.0034023234538 -0.0039610463451 -0.0044821887785 -0.0049884261455 -0.0054974679522 -0.0060221324086 -0.0065706346413 -0.0071469634066 
-0.0077512696342 -0.0083802262005 -0.0090273435003 -0.0096832424641 -0.010335898117 -0.01097087387 -0.011571570278 -0.012119513148 -0.012594705529 
-0.012976066916 -0.013241980978 -0.013370969724 -0.013342506626 -0.013137973753 -0.01274176842 -0.012135719203 -0.011309405364 -0.01026289646 
-0.0090034886712 -0.0075481017576 -0.0059243296559 -0.0041710407742 -0.0023383558635 -0.00048680905734 0.0013144911503 0.002990831139 0.0044660168929 
0.0056675171063 0.0065322734557 0.0070125864203 0.0070812686521 0.0067351386673 0.0059959855525 0.004908425493 0.0035345827989 0.00194615593 
0.00021498072052 -0.001596533919 -0.0020772987968 -0.0030834497146 -0.0039336743272 -0.0046595680072 -0.0052945901314 -0.0058705571991 -0.0064155929572 
-0.0069531013587 -0.0075014166306 -0.0080738651752 -0.0086790469556 -0.0093212068695 -0.010000616032 -0.010713919137 -0.011454430043 -0.012212376285 
-0.012975106075 -0.013727279373 -0.01445106892 -0.015126399092 -0.015731250992 -0.016242061849 -0.016634245277 -0.016882855364 -0.016963409247 
-0.01685285985 -0.016530632656 -0.015979326926 -0.015175114685 -0.014113740369 -0.012797672316 -0.011239939122 -0.009465610573 -0.0075128843479 
-0.0054335666678 -0.0032926930423 -0.0011670262486 0.00085779548045 0.0026915895521 0.0042453942174 0.0054383664341 0.0062051916092 0.0065030553824 
0.0063169813844 0.0056622942584 0.0045832305179 0.0031473236946 0.0014360334363 -0.00046707968751 -0.0024888382563 -0.0041376679268 -0.0051368617951 
-0.0059852610383 -0.0067146046909 -0.0073587763028 -0.0079501889407 -0.0085176469222 -0.0090852522342 -0.009672005748 -0.01029183396 -0.010953845846 
-0.011662686608 -0.012418903269 -0.013219273325 -0.014057075057 -0.01492229857 -0.015801811018 -0.016679498572 -0.01753641296 -0.018350953257 
-0.019099115048 -0.019754839516 -0.020290494583 -0.020677518932 -0.020887257832 -0.020892020441 -0.020666410836 -0.020189129954 -0.019429516277 
-0.018374113529 -0.017019335744 -0.015373000802 -0.013456232258 -0.011305089365 -0.0089716590345 -0.0065242917661 -0.004046630972 -0.0016350946983 
0.00060545459065 0.0025679444714 0.0041510359034 0.005268180806 0.0058567363041 0.0058856587545 0.0053600872995 0.0043212962843 0.0028411561341 
0.0010113274841 -0.0010713784275 -0.0033211872801 -0.006379365799 -0.007366904117 -0.008209932687 -0.0089398666537 -0.0095906586381 -0.010195094258 
-0.010782559739 -0.011377860301 -0.0120007461 -0.012665879889 -0.013383050652 -0.014157495662 -0.014990239531 -0.015878395614 -0.016815404422 
-0.017791206067 -0.018792359572 -0.019802132022 -0.020800586714 -0.021764703169 -0.022668563978 -0.023483644625 -0.024179243109 -0.024723086568 
-0.025082152939 -0.025223750688 -0.025116926907 -0.024734399941 -0.024045164803 -0.023020221852 -0.021649027432 -0.019932898404 -0.017887498804 
-0.015545073237 -0.012956257288 -0.010191090841 -0.0073387954396 -0.0045058509558 -0.0018119454625 0.00061648015773 0.0026550729394 0.004192304916 