# vtk DataFile Version 4.1
vtk output
ASCII
DATASET STRUCTURED_GRID
DIMENSIONS 51 51 1
POINTS 2601 float
0 0 0 0.02 0 0 0.04 0 0 
0.06 0 0 0.08 0 0 0.1 0 0 
0.12 0 0 0.14 0 0 0.16 0 0 
0.18 0 0 0.2 0 0 0.22 0 0 
0.24 0 0 0.26 0 0 0.28 0 0 
0.3 0 0 0.32 0 0 0.34 0 0 
0.36 0 0 0.38 0 0 0.4 0 0 
0.42 0 0 0.44 0 0 0.46 0 0 
0.48 0 0 0.5 0 0 0.52 0 0 
0.54 0 0 0.56 0 0 0.58 0 0 
0.6 0 0 0.62 0 0 0.64 0 0 
0.66 0 0 0.68 0 0 0.7 0 0 
0.72 0 0 0.74 0 0 0.76 0 0 
0.78 0 0 0.8 0 0 0.82 0 0 
0.84 0 0 0.86 0 0 0.88 0 0 
0.9 0 0 0.92 0 0 0.94 0 0 
0.96 0 0 0.98 0 0 1 0 0 
0 0.02 0 0.02 0.02 0 0.04 0.02 0 
0.06 0.02 0 0.08 0.02 0 0.1 0.02 0 
0.12 0.02 0 0.14 0.02 0 0.16 0.02 0 
0.18 0.02 0 0.2 0.02 0 0.22 0.02 0 
0.24 0.02 0 0.26 0.02 0 0.28 0.02 0 
0.3 0.02 0 0.32 0.02 0 0.34 0.02 0 
0.36 0.02 0 0.38 0.02 0 0.4 0.02 0 
0.42 0.02 0 0.44 0.02 0 0.46 0.02 0 
0.48 0.02 0 0.5 0.02 0 0.52 0.02 0 
0.54 0.02 0 0.56 0.02 0 0.58 0.02 0 
0.6 0.02 0 0.62 0.02 0 0.64 0.02 0 
0.66 0.02 0 0.68 0.02 0 0.7 0.02 0 
0.72 0.02 0 0.74 0.02 0 0.76 0.02 0 
0.78 0.02 0 0.8 0.02 0 0.82 0.02 0 
0.84 0.02 0 0.86 0.02 0 0.88 0.02 0 
0.9 0.02 0 0.92 0.02 0 0.94 0.02 0 
0.96 0.02 0 0.98 0.02 0 1 0.02 0 
0 0.04 0 0.02 0.04 0 0.04 0.04 0 
0.06 0.04 0 0.08 0.04 0 0.1 0.04 0 
0.12 0.04 0 0.14 0.04 0 0.16 0.04 0 
0.18 0.04 0 0.2 0.04 0 0.22 0.04 0 
0.24 0.04 0 0.26 0.04 0 0.28 0.04 0 
0.3 0.04 0 0.32 0.04 0 0.34 0.04 0 
0.36 0.04 0 0.38 0.04 0 0.4 0.04 0 
0.42 0.04 0 0.44 0.04 0 0.46 0.04 0 
0.48 0.04 0 0.5 0.04 0 0.52 0.04 0 
0.54 0.04 0 0.56 0.04 0 0.58 0.04 0 
0.6 0.04 0 0.62 0.04 0 0.64 0.04 0 
0.66 0.04 0 0.68 0.04 0 0.7 0.04 0 
0.72 0.04 0 0.74 0.04 0 0.76 0.04 0 
0.78 0.04 0 0.8 0.04 0 0.82 0.04 0 
0.84 0.04 0 0.86 0.04 0 0.88 0.04 0 
0.9 0.04 0 0.92 0.04 0 0.94 0.04 0 
0.96 0.04 0 0.98 0.04 0 1 0.04 0 
0 0.06 0 0.02 0.06 0 0.04 0.06 0 
0.06 0.06 0 0.08 0.06 0 0.1 0.06 0 
0.12 0.06 0 0.14 0.06 0 0.16 0.06 0 
0.18 0.06 0 0.2 0.06 0 0.22 0.06 0 
0.24 0.06 0 0.26 0.06 0 0.28 0.06 0 
0.3 0.06 0 0.32 0.06 0 0.34 0.06 0 
0.36 0.06 0 0.38 0.06 0 0.4 0.06 0 
0.42 0.06 0 0.44 0.06 0 0.46 0.06 0 
0.48 0.06 0 0.5 0.06 0 0.52 0.06 0 
0.54 0.06 0 0.56 0.06 0 0.58 0.06 0 
0.6 0.06 0 0.62 0.06 0 0.64 0.06 0 
0.66 0.06 0 0.68 0.06 0 0.7 0.06 0 
0.72 0.06 0 0.74 0.06 0 0.76 0.06 0 
0.78 0.06 0 0.8 0.06 0 0.82 0.06 0 
0.84 0.06 0 0.86 0.06 0 0.88 0.06 0 
0.9 0.06 0 0.92 0.06 0 0.94 0.06 0 
0.96 0.06 0 0.98 0.06 0 1 0.06 0 
0 0.08 0 0.02 0.08 0 0.04 0.08 0 
0.06 0.08 0 0.08 0.08 0 0.1 0.08 0 
0.12 0.08 0 0.14 0.08 0 0.16 0.08 0 
0.18 0.08 0 0.2 0.08 0 0.22 0.08 0 
0.24 0.08 0 0.26 0.08 0 0.28 0.08 0 
0.3 0.08 0 0.32 0.08 0 0.34 0.08 0 
0.36 0.08 0 0.38 0.08 0 0.4 0.08 0 
0.42 0.08 0 0.44 0.08 0 0.46 0.08 0 
0.48 0.08 0 0.5 0.08 0 0.52 0.08 0 
0.54 0.08 0 0.56 0.08 0 0.58 0.08 0 
0.6 0.08 0 0.62 0.08 0 0.64 0.08 0 
0.66 0.08 0 0.68 0.08 0 0.7 0.08 0 
0.72 0.08 0 0.74 0.08 0 0.76 0.08 0 
0.78 0.08 0 0.8 0.08 0 0.82 0.08 0 
0.84 0.08 0 0.86 0.08 0 0.88 0.08 0 
0.9 0.08 0 0.92 0.08 0 0.94 0.08 0 
0.96 0.08 0 0.98 0.08 0 1 0.08 0 
0 0.1 0 0.02 0.1 0 0.04 0.1 0 
0.06 0.1 0 0.08 0.1 0 0.1 0.1 0 
0.12 0.1 0 0.14 0.1 0 0.16 0.1 0 
0.18 0.1 0 0.2 0.1 0 0.22 0.1 0 
0.24 0.1 0 0.26 0.1 0 0.28 0.1 0 
0.3 0.1 0 0.32 0.1 0 0.34 0.1 0 
0.36 0.1 0 0.38 0.1 0 0.4 0.1 0 
0.42 0.1 0 0.44 0.1 0 0.46 0.1 0 
0.48 0.1 0 0.5 0.1 0 0.52 0.1 0 
0.54 0.1 0 0.56 0.1 0 0.58 0.1 0 
0.6 0.1 0 0.62 0.1 0 0.64 0.1 0 
0.66 0.1 0 0.68 0.1 0 0.7 0.1 0 
0.72 0.1 0 0.74 0.1 0 0.76 0.1 0 
0.78 0.1 0 0.8 0.1 0 0.82 0.1 0 
0.84 0.1 0 0.86 0.1 0 0.88 0.1 0 
0.9 0.1 0 0.92 0.1 0 0.94 0.1 0 
0.96 0.1 0 0.98 0.1 0 1 0.1 0 
0 0.12 0 0.02 0.12 0 0.04 0.12 0 
0.06 0.12 0 0.08 0.12 0 0.1 0.12 0 
0.12 0.12 0 0.14 0.12 0 0.16 0.12 0 
0.18 0.12 0 0.2 0.12 0 0.22 0.12 0 
0.24 0.12 0 0.26 0.12 0 0.28 0.12 0 
0.3 0.12 0 0.32 0.12 0 0.34 0.12 0 
0.36 0.12 0 0.38 0.12 0 0.4 0.12 0 
0.42 0.12 0 0.44 0.12 0 0.46 0.12 0 
0.48 0.12 0 0.5 0.12 0 0.52 0.12 0 
0.54 0.12 0 0.56 0.12 0 0.58 0.12 0 
0.6 0.12 0 0.62 0.12 0 0.64 0.12 0 
0.66 0.12 0 0.68 0.12 0 0.7 0.12 0 
0.72 0.12 0 0.74 0.12 0 0.76 0.12 0 
0.78 0.12 0 0.8 0.12 0 0.82 0.12 0 
0.84 0.12 0 0.86 0.12 0 0.88 0.12 0 
0.9 0.12 0 0.92 0.12 0 0.94 0.12 0 
0.96 0.12 0 0.98 0.12 0 1 0.12 0 
0 0.14 0 0.02 0.14 0 0.04 0.14 0 
0.06 0.14 0 0.08 0.14 0 0.1 0.14 0 
0.12 0.14 0 0.14 0.14 0 0.16 0.14 0 
0.18 0.14 0 0.2 0.14 0 0.22 0.14 0 
0.24 0.14 0 0.26 0.14 0 0.28 0.14 0 
0.3 0.14 0 0.32 0.14 0 0.34 0.14 0 
0.36 0.14 0 0.38 0.14 0 0.4 0.14 0 
0.42 0.14 0 0.44 0.14 0 0.46 0.14 0 
0.48 0.14 0 0.5 0.14 0 0.52 0.14 0 
0.54 0.14 0 0.56 0.14 0 0.58 0.14 0 
0.6 0.14 0 0.62 0.14 0 0.64 0.14 0 
0.66 0.14 0 0.68 0.14 0 0.7 0.14 0 
0.72 0.14 0 0.74 0.14 0 0.76 0.14 0 
0.78 0.14 0 0.8 0.14 0 0.82 0.14 0 
0.84 0.14 0 0.86 0.14 0 0.88 0.14 0 
0.9 0.14 0 0.92 0.14 0 0.94 0.14 0 
0.96 0.14 0 0.98 0.14 0 1 0.14 0 
0 0.16 0 0.02 0.16 0 0.04 0.16 0 
0.06 0.16 0 0.08 0.16 0 0.1 0.16 0 
0.12 0.16 0 0.14 0.16 0 0.16 0.16 0 
0.18 0.16 0 0.2 0.16 0 0.22 0.16 0 
0.24 0.16 0 0.26 0.16 0 0.28 0.16 0 
0.3 0.16 0 0.32 0.16 0 0.34 0.16 0 
0.36 0.16 0 0.38 0.16 0 0.4 0.16 0 
0.42 0.16 0 0.44 0.16 0 0.46 0.16 0 
0.48 0.16 0 0.5 0.16 0 0.52 0.16 0 
0.54 0.16 0 0.56 0.16 0 0.58 0.16 0 
0.6 0.16 0 0.62 0.16 0 0.64 0.16 0 
0.66 0.16 0 0.68 0.16 0 0.7 0.16 0 
0.72 0.16 0 0.74 0.16 0 0.76 0.16 0 
0.78 0.16 0 0.8 0.16 0 0.82 0.16 0 
0.84 0.16 0 0.86 0.16 0 0.88 0.16 0 
0.9 0.16 0 0.92 0.16 0 0.94 0.16 0 
0.96 0.16 0 0.98 0.16 0 1 0.16 0 
0 0.18 0 0.02 0.18 0 0.04 0.18 0 
0.06 0.18 0 0.08 0.18 0 0.1 0.18 0 
0.12 0.18 0 0.14 0.18 0 0.16 0.18 0 
0.18 0.18 0 0.2 0.18 0 0.22 0.18 0 
0.24 0.18 0 0.26 0.18 0 0.28 0.18 0 
0.3 0.18 0 0.32 0.18 0 0.34 0.18 0 
0.36 0.18 0 0.38 0.18 0 0.4 0.18 0 
0.42 0.18 0 0.44 0.18 0 0.46 0.18 0 
0.48 0.18 0 0.5 0.18 0 0.52 0.18 0 
0.54 0.18 0 0.56 0.18 0 0.58 0.18 0 
0.6 0.18 0 0.62 0.18 0 0.64 0.18 0 
0.66 0.18 0 0.68 0.18 0 0.7 0.18 0 
0.72 0.18 0 0.74 0.18 0 0.76 0.18 0 
0.78 0.18 0 0.8 0.18 0 0.82 0.18 0 
0.84 0.18 0 0.86 0.18 0 0.88 0.18 0 
0.9 0.18 0 0.92 0.18 0 0.94 0.18 0 
0.96 0.18 0 0.98 0.18 0 1 0.18 0 
0 0.2 0 0.02 0.2 0 0.04 0.2 0 
0.06 0.2 0 0.08 0.2 0 0.1 0.2 0 
0.12 0.2 0 0.14 0.2 0 0.16 0.2 0 
0.18 0.2 0 0.2 0.2 0 0.22 0.2 0 
0.24 0.2 0 0.26 0.2 0 0.28 0.2 0 
0.3 0.2 0 0.32 0.2 0 0.34 0.2 0 
0.36 0.2 0 0.38 0.2 0 0.4 0.2 0 
0.42 0.2 0 0.44 0.2 0 0.46 0.2 0 
0.48 0.2 0 0.5 0.2 0 0.52 0.2 0 
0.54 0.2 0 0.56 0.2 0 0.58 0.2 0 
0.6 0.2 0 0.62 0.2 0 0.64 0.2 0 
0.66 0.2 0 0.68 0.2 0 0.7 0.2 0 
0.72 0.2 0 0.74 0.2 0 0.76 0.2 0 
0.78 0.2 0 0.8 0.2 0 0.82 0.2 0 
0.84 0.2 0 0.86 0.2 0 0.88 0.2 0 
0.9 0.2 0 0.92 0.2 0 0.94 0.2 0 
0.96 0.2 0 0.98 0.2 0 1 0.2 0 
0 0.22 0 0.02 0.22 0 0.04 0.22 0 
0.06 0.22 0 0.08 0.22 0 0.1 0.22 0 
0.12 0.22 0 0.14 0.22 0 0.16 0.22 0 
0.18 0.22 0 0.2 0.22 0 0.22 0.22 0 
0.24 0.22 0 0.26 0.22 0 0.28 0.22 0 
0.3 0.22 0 0.32 0.22 0 0.34 0.22 0 
0.36 0.22 0 0.38 0.22 0 0.4 0.22 0 
0.42 0.22 0 0.44 0.22 0 0.46 0.22 0 
0.48 0.22 0 0.5 0.22 0 0.52 0.22 0 
0.54 0.22 0 0.56 0.22 0 0.58 0.22 0 
0.6 0.22 0 0.62 0.22 0 0.64 0.22 0 
0.66 0.22 0 0.68 0.22 0 0.7 0.22 0 
0.72 0.22 0 0.74 0.22 0 0.76 0.22 0 
0.78 0.22 0 0.8 0.22 0 0.82 0.22 0 
0.84 0.22 0 0.86 0.22 0 0.88 0.22 0 
0.9 0.22 0 0.92 0.22 0 0.94 0.22 0 
0.96 0.22 0 0.98 0.22 0 1 0.22 0 
0 0.24 0 0.02 0.24 0 0.04 0.24 0 
0.06 0.24 0 0.08 0.24 0 0.1 0.24 0 
0.12 0.24 0 0.14 0.24 0 0.16 0.24 0 
0.18 0.24 0 0.2 0.24 0 0.22 0.24 0 
0.24 0.24 0 0.26 0.24 0 0.28 0.24 0 
0.3 0.24 0 0.32 0.24 0 0.34 0.24 0 
0.36 0.24 0 0.38 0.24 0 0.4 0.24 0 
0.42 0.24 0 0.44 0.24 0 0.46 0.24 0 
0.48 0.24 0 0.5 0.24 0 0.52 0.24 0 
0.54 0.24 0 0.56 0.24 0 0.58 0.24 0 
0.6 0.24 0 0.62 0.24 0 0.64 0.24 0 
0.66 0.24 0 0.68 0.24 0 0.7 0.24 0 
0.72 0.24 0 0.74 0.24 0 0.76 0.24 0 
0.78 0.24 0 0.8 0.24 0 0.82 0.24 0 
0.84 0.24 0 0.86 0.24 0 0.88 0.24 0 
0.9 0.24 0 0.92 0.24 0 0.94 0.24 0 
0.96 0.24 0 0.98 0.24 0 1 0.24 0 
0 0.26 0 0.02 0.26 0 0.04 0.26 0 
0.06 0.26 0 0.08 0.26 0 0.1 0.26 0 
0.12 0.26 0 0.14 0.26 0 0.16 0.26 0 
0.18 0.26 0 0.2 0.26 0 0.22 0.26 0 
0.24 0.26 0 0.26 0.26 0 0.28 0.26 0 
0.3 0.26 0 0.32 0.26 0 0.34 0.26 0 
0.36 0.26 0 0.38 0.26 0 0.4 0.26 0 
0.42 0.26 0 0.44 0.26 0 0.46 0.26 0 
0.48 0.26 0 0.5 0.26 0 0.52 0.26 0 
0.54 0.26 0 0.56 0.26 0 0.58 0.26 0 
0.6 0.26 0 0.62 0.26 0 0.64 0.26 0 
0.66 0.26 0 0.68 0.26 0 0.7 0.26 0 
0.72 0.26 0 0.74 0.26 0 0.76 0.26 0 
0.78 0.26 0 0.8 0.26 0 0.82 0.26 0 
0.84 0.26 0 0.86 0.26 0 0.88 0.26 0 
0.9 0.26 0 0.92 0.26 0 0.94 0.26 0 
0.96 0.26 0 0.98 0.26 0 1 0.26 0 
0 0.28 0 0.02 0.28 0 0.04 0.28 0 
0.06 0.28 0 0.08 0.28 0 0.1 0.28 0 
0.12 0.28 0 0.14 0.28 0 0.16 0.28 0 
0.18 0.28 0 0.2 0.28 0 0.22 0.28 0 
0.24 0.28 0 0.26 0.28 0 0.28 0.28 0 
0.3 0.28 0 0.32 0.28 0 0.34 0.28 0 
0.36 0.28 0 0.38 0.28 0 0.4 0.28 0 
0.42 0.28 0 0.44 0.28 0 0.46 0.28 0 
0.48 0.28 0 0.5 0.28 0 0.52 0.28 0 
0.54 0.28 0 0.56 0.28 0 0.58 0.28 0 
0.6 0.28 0 0.62 0.28 0 0.64 0.28 0 
0.66 0.28 0 0.68 0.28 0 0.7 0.28 0 
0.72 0.28 0 0.74 0.28 0 0.76 0.28 0 
0.78 0.28 0 0.8 0.28 0 0.82 0.28 0 
0.84 0.28 0 0.86 0.28 0 0.88 0.28 0 
0.9 0.28 0 0.92 0.28 0 0.94 0.28 0 
0.96 0.28 0 0.98 0.28 0 1 0.28 0 
0 0.3 0 0.02 0.3 0 0.04 0.3 0 
0.06 0.3 0 0.08 0.3 0 0.1 0.3 0 
0.12 0.3 0 0.14 0.3 0 0.16 0.3 0 
0.18 0.3 0 0.2 0.3 0 0.22 0.3 0 
0.24 0.3 0 0.26 0.3 0 0.28 0.3 0 
0.3 0.3 0 0.32 0.3 0 0.34 0.3 0 
0.36 0.3 0 0.38 0.3 0 0.4 0.3 0 
0.42 0.3 0 0.44 0.3 0 0.46 0.3 0 
0.48 0.3 0 0.5 0.3 0 0.52 0.3 0 
0.54 0.3 0 0.56 0.3 0 0.58 0.3 0 
0.6 0.3 0 0.62 0.3 0 0.64 0.3 0 
0.66 0.3 0 0.68 0.3 0 0.7 0.3 0 
0.72 0.3 0 0.74 0.3 0 0.76 0.3 0 
0.78 0.3 0 0.8 0.3 0 0.82 0.3 0 
0.84 0.3 0 0.86 0.3 0 0.88 0.3 0 
0.9 0.3 0 0.92 0.3 0 0.94 0.3 0 
0.96 0.3 0 0.98 0.3 0 1 0.3 0 
0 0.32 0 0.02 0.32 0 0.04 0.32 0 
0.06 0.32 0 0.08 0.32 0 0.1 0.32 0 
0.12 0.32 0 0.14 0.32 0 0.16 0.32 0 
0.18 0.32 0 0.2 0.32 0 0.22 0.32 0 
0.24 0.32 0 0.26 0.32 0 0.28 0.32 0 
0.3 0.32 0 0.32 0.32 0 0.34 0.32 0 
0.36 0.32 0 0.38 0.32 0 0.4 0.32 0 
0.42 0.32 0 0.44 0.32 0 0.46 0.32 0 
0.48 0.32 0 0.5 0.32 0 0.52 0.32 0 
0.54 0.32 0 0.56 0.32 0 0.58 0.32 0 
[...]
CELL_DATA 2500
FIELD FieldData 1
pressure 1 2500 double
-0.003710728513 -0.0037652781631 -0.0038855297629 -0.00403873618 -0.0041972209151 -0.0043406067573 -0.0044548126937 -0.0045305472282 -0.0045620062617 
-0.0045458749628 -0.004480591077 -0.0043658101314 -0.0042020234114 -0.0039902919709 -0.0037320694548 -0.0034290928503 -0.0030833249709 -0.0026969354603 
-0.0022723095622 -0.0018120757233 -0.001319144569 -0.0007967530276 -0.00024850846171 0.00032157125972 0.00090902446698 0.0015089198024 0.0021158254125 
0.0027237153383 0.003326338751 0.00391712113 0.0044892396897 0.005035733483 0.0055496426599 0.0060241733128 0.0064528846403 0.0068298946075 
0.0071500996569 0.0074094037348 0.0076049523713 0.0077353692144 0.0078009958074 0.0078041412078 0.0077493571053 0.0076437671446 0.0074974955343 
0.00732425271 0.0071421142698 0.0069743643608 0.0068496016184 0.0067980717925 -0.003655505343 -0.003710395368 -0.0038098299827 -0.0039318836915 
-0.0040569680368 -0.0041692829727 -0.0042569631904 -0.0043115686384 -0.0043274071305 -0.0043008964183 -0.0042300314544 -0.0041139651825 -0.0039526916121 
-0.0037468151904 -0.003497390576 -0.0032058188888 -0.0028737881517 -0.002503247569 -0.0020964067053 -0.001655751932 -0.0011840736083 -0.00068449840058 
-0.00016052195209 0.00038396221577 0.00094464118157 0.0015167722395 0.0020951406978 0.0026739281072 0.0032472170552 0.0038088031811 0.0043522846076 
0.0048711741075 0.005359035023 0.00580963933 0.006217145035 0.0065762891451 0.0068825917411 0.0071325663278 0.0073239318811 0.0074558231039 
0.0075289975554 0.0075460416329 0.0075115815831 0.0074325095278 0.0073182340944 0.0071809507961 0.0070358763482 0.0069012625944 0.0067977694733 
0.0067466882414 -0.0035342428518 -0.0036111773124 -0.0037116523442 -0.0038222317726 -0.003929856205 -0.004023137319 -0.0040929133805 -0.00413225526 
-0.004136208237 -0.0041014482807 -0.0040259439131 -0.0039086626525 -0.0037493342672 -0.0035482703691 -0.0033062347368 -0.0030243567019 -0.0027040797437 
-0.0023471377761 -0.0019555522643 -0.0015316439873 -0.0010780540145 -0.00059776902658 -9.4146602472e-05 0.00042906349361 0.00096770587125 0.0015172182465 
0.0020725590862 0.0026280986045 0.0031781774803 0.003716875144 0.0042381029745 0.0047357174725 0.0052036543789 0.0056360826085 0.0060275752767 
0.006373293927 0.0066691810874 0.006912155656 0.0071003054013 0.0072330711876 0.0073114183893 0.007337992075 0.0073172531942 0.0072555914874 
0.0071614037393 0.0070451072631 0.00691901978 0.006796974651 0.0066934855121 0.0066223661498 -0.00337810897 -0.0034885609342 -0.0036035201229 
-0.0037159085999 -0.0038177897639 -0.0039015948059 -0.0039608153724 -0.0039902524182 -0.0039860037128 -0.0039453238975 -0.0038664404679 -0.0037483715469 
-0.0035907674639 -0.003393784531 -0.0031579919963 -0.0028843094346 -0.002573970272 -0.0022285064806 -0.0018497494586 -0.0014398424869 -0.0010012602789 
-0.00053683152877 -4.9760737306e-05 0.00045635429255 0.00097751293387 0.0015093140056 0.0020468546192 0.0025846705526 0.0031172868947 0.0036389803125 
0.004143872016 0.0046260409217 0.0050796569822 0.0054991332307 0.0058792935618 0.006215551915 0.0065040972778 0.006742077921 0.0069277775756 
0.0070607758802 0.0071420852784 0.0071742562982 0.0071614420749 0.0071094097704 0.0070254791272 0.0069183541844 0.0067977914632 0.0066740200158 
0.0065568103583 0.0064540989966 -0.0032137271121 -0.0033616834984 -0.0034983467959 -0.0036208909385 -0.0037251571428 -0.0038066526038 -0.0038612096104 
-0.0038853122745 -0.0038762048272 -0.0038318746466 -0.0037509754084 -0.0036327313402 -0.0034768456592 -0.0032834246401 -0.0030529214775 -0.0027861002619 
-0.002484018026 -0.0021480218379 -0.0017797577819 -0.0013811880485 -0.00095461282989 -0.00050269385698 -2.8476294615e-05 0.00046459420213 0.00097266238813 
0.0014914654451 0.0020162114308 0.0025415615756 0.0030621579429 0.0035723924584 0.00406649898 0.0045386664917 0.0049831728312 0.0053945370338 
0.0057676868787 0.006098136651 0.0063821686115 0.0066170102808 0.0068009984927 0.0069337202836 0.0070161199944 0.0070505612203 0.0070408309558 
0.0069920707029 0.0069106144926 0.0068037059467 0.0066790559565 0.0065441915751 0.0064055387859 0.0062671716821 -0.0030611539629 -0.00324652604 
-0.0034080616122 -0.0035455697136 -0.0036575388079 -0.0037418304961 -0.0037962129881 -0.0038186704009 -0.0038075503043 -0.0037616088945 -0.0036800001502 
-0.0035622406926 -0.0034081700035 -0.0032179167261 -0.0029918760829 -0.0027306997401 -0.0024352973416 -0.0021068484102 -0.0017468216056 -0.0013569993477 
-0.0009395052268 -0.00049683136235 -3.1863150039e-05 0.00045210119884 0.00095133910496 0.001461702845 0.0019784865734 0.0024964232725 0.0030102099551 
0.0035142773253 0.0040028812979 0.0044702169391 0.0049105540138 0.0053183918613 0.0056886297231 0.0060167467895 0.0062989844017 0.0065325210909 
0.0067156296501 0.0068478042739 0.0069298449827 0.0069638859924 0.0069533541726 0.0069028429322 0.006817885496 0.0067046095332 0.0065692529615 
0.0064175194771 0.0062537522964 0.0060799023203 -0.0029350325741 -0.0031558779059 -0.0033430797785 -0.0034980045233 -0.0036209385141 -0.0037114893561 
-0.0037689640501 -0.0037926146355 -0.0037817775682 -0.0037359406089 -0.0036547669686 -0.0035380987969 -0.003385954457 -0.0031985279319 -0.0029761944973 
-0.0027195237643 -0.0024293006107 -0.0021065514876 -0.0017525758005 -0.0013689799787 -0.00095771211247 -0.00052109541161 -6.1858292276e-05 0.00041684131559 
0.00091139984251 0.00141776259 0.0019312866147 0.0024467139055 0.0029587388244 0.0034617595992 0.0039499697236 0.0044174735072 0.0048584249598 
0.005267187534 0.0056385103664 0.005967714506 0.0062508804326 0.0064850261125 0.0066682630742 0.0067999167339 0.0068805965838 0.0069122019194 
0.0068978495219 0.0068417110509 0.0067487497691 0.0066243486652 0.0064738252015 0.0063018318693 0.0061116458964 0.0059043544188 -0.0028460846197 
-0.0030998388243 -0.0033122539355 -0.003485587864 -0.003621333274 -0.0037203744583 -0.0037832157359 -0.0038101478534 -0.0038013557932 -0.0037569834505 
-0.0036771720072 -0.0035620856032 -0.0034119334661 -0.0032269939238 -0.0030076424421 -0.0027543853661 -0.0024678969913 -0.0021490611624 -0.0017990146468 
-0.0014191912071 -0.0010113652134 -0.00057769286891 -0.00012074921247 0.00035644097309 0.00085038054726 0.0013570881377 0.0018719633467 0.0023896884633 
0.0029049018257 0.0034119027312 0.0039047429227 0.0043773446088 0.0048236442583 0.0052377595875 0.0056141749577 0.0059479379208 0.0062348570748 
0.0064716889783 0.0066562999221 0.0067877871305 0.0068665437077 0.0068942525495 0.0068737965888 0.0068090761143 0.0067047284053 0.0065657503304 
0.0063970305085 0.0062028034116 0.0059860422309 0.0057478092804 -0.0028023146198 -0.0030864268154 -0.0033230565029 -0.0035149608617 -0.0036644470914 
-0.0037733354211 -0.0038430566358 -0.0038747398742 -0.0038692801421 -0.0038273885545 -0.0037496324709 -0.003636472236 -0.0034882991736 -0.0033054769034 
-0.0030883877239 -0.0028374816429 -0.0025533296719 -0.0022366782412 -0.0018885043726 -0.0015100706715 -0.001102978355 -0.00066921717522 -0.00021121090889 
0.0002681435155 0.00076544544909 0.0012767709261 0.0017975481386 0.002322326412 0.0028456390318 0.0033616242743 0.0038641170382 0.0043467700162 
0.0048032038412 0.005227183681 0.0056128171914 0.0059547658288 0.0062484585107 0.0064902938482 0.0066778149921 0.0068098399516 0.0068865304243 
0.0069093839587 0.006881137766 0.0068055776439 0.0066872519091 0.0065310974065 0.006341991639 0.0061242505405 0.0058810939812 0.0056140994334 
-0.0028098820027 -0.003122124135 -0.0033818401976 -0.0035920646771 -0.003755669916 -0.0038751756769 -0.0039527364953 -0.003990158021 -0.0039889234115 
-0.0039502241623 -0.003874995415 -0.003763957061 -0.0036176611747 -0.0034365464165 -0.0032209967806 -0.0029714052134 -0.0026882391841 -0.0023721071484 
-0.0020238254819 -0.0016444835182 -0.0012355064744 -0.00079871525403 -0.00033638139474 0.00014872448946 0.00065329286531 0.0011734466196 0.0017046399457 
0.0022412113072 0.0027775449759 0.0033075605625 0.0038248046078 0.0043225753609 0.0047940805381 0.0052326258071 0.0056318287641 0.0059858497714 
0.006289627465 0.0065391034767 0.0067314184601 0.0068650603201 0.0069399460982 0.0069574215609 0.0069201672653 0.0068320064883 0.0066976182888 
0.0065221671441 0.0063108676314 0.0060685070233 0.0057989488047 0.0055046354017 -0.0028737171511 -0.0032123208435 -0.0034941022784 -0.0037222548839 
-0.0039000637773 -0.0040305911807 -0.0041165710671 -0.0041603626249 -0.0041639381212 -0.0041288933762 -0.0040564753878 -0.0039476239368 -0.003803025361 
-0.0036231751717 -0.0034084477945 -0.0031591710936 -0.0028757024498 -0.0025585071303 -0.0022082345268 -0.0018257938019 -0.0014124272239 -0.00096977985651 
-0.00049996482078 -5.6223184784e-06 0.0005100299133 0.0010431576512 0.0015892562665 0.0021423709184 0.0026966992489 0.0032458892399 0.0037831308446 
0.0043012844691 0.0047930471589 0.0052511549939 0.0056686166204 0.0060389687156 0.0063565399687 0.006616706294 0.0068161170646 0.0069528708114 
0.0070266196148 0.0070385847138 0.0069914716797 0.0068892814247 0.0067370224232 0.0065403383958 0.0063050726663 0.006036793662 0.0057403044396 
0.0054191525895 -0.0029979590026 -0.00336166236 -0.0036647230026 -0.0039104376516 -0.0041024170277 -0.0042441670474 -0.0043389040248 -0.0043894528962 
-0.0043982001114 -0.0043670846243 -0.0042976169527 -0.004190920009 -0.0040477864193 -0.0038687478005 -0.0036541533911 -0.0034042525274 -0.0031192822575 
-0.0027995530143 -0.0024455360422 -0.0020579486451 -0.0016378372574 -0.0011866578776 -0.00070635231652 -0.00019941899218 0.0003310242686 0.00088118965363 
0.0014466534414 0.0020210837469 0.0025984610846 0.0031721137664 0.0037348104621 0.0042788915907 0.0047964438903 0.0052795182424 0.0057203861125 
0.0061118250143 0.0064474183079 0.0067218499488 0.0069311711891 0.0070730144654 0.007146730534 0.0071534287434 0.0070959071663 0.0069784685691 
0.0068066286066 0.0065867324466 0.0063255032186 0.0060295484809 0.0057048483984 0.0053562422582 -0.0031862713699 -0.0035743193118 -0.0038981701408 
-0.0041612067272 -0.0043673220465 -0.004520409421 -0.0046241076168 -0.0046816496981 -0.0046957842349 -0.0046687481914 -0.0046022778261 -0.0044976480104 
-0.0043557320343 -0.0041770770698 -0.0039619884608 -0.0037106224721 -0.0034230791524 -0.0030994993117 -0.0027401596633 -0.0023455676827 -0.0019165547659 
-0.0014543670492 -0.00096075376153 -0.00043805117508 0.00011074028222 0.00068188993602 0.0012711196234 0.0018716550326 0.0024772303833 0.0030808108023 
0.003674684141 0.0042505911338 0.0047999065767 0.0053138732556 0.0057838844208 0.0062018048449 0.0065603145146 0.0068532532032 0.007075939512 
0.0072254354453 0.0073007281013 0.007302804229 0.0072346012384 0.007100829019 0.006907669071 0.0066623688472 0.0063727574352 0.0060467119081 
0.0056916011508 0.0053137270026 -0.0034420761999 -0.0038541976948 -0.0041986708289 -0.0044789715156 -0.0046992616916 -0.0048637970383 -0.0049766080658 
-0.005041303687 -0.0050609631711 -0.0050380923203 -0.0049746267798 -0.0048719696618 -0.0047310541654 -0.0045524230969 -0.0043363212453 -0.0040827924669 
-0.0037917826877 -0.0034632431326 -0.0030972346839 -0.0026940311504 -0.0022542220066 -0.0017788146712 -0.001269334711 -0.00072792354062 -0.00015743305771 
0.000438482001 0.0010557360446 0.0016871634378 0.0023261762789 0.0029653400099 0.0035964124634 0.0042104606233 0.0047980450374 0.0053494697389 
0.0058550933327 0.0063056912573 0.0066928521379 0.0070093839172 0.0072496992564 0.0074101458625 0.0074892471714 0.0074878230358 0.0074089689114 
0.0072578846977 0.0070415590354 0.0067683288649 0.0064473445191 0.0060879753369 0.0056991889721 0.0052889308191 -0.0037687289626 -0.0042051041546 
-0.0045703549656 -0.0048680727358 -0.0051026963314 -0.0052788423003 -0.0054009254769 -0.0054729196303 -0.0054982217067 -0.0054795922033 -0.0054191513981 
-0.0053184156294 -0.005178362175 -0.0049995144429 -0.0047820386107 -0.0045258487139 -0.0042307158099 -0.0038963790723 -0.0035226570906 -0.0031095598353 
-0.002657401462 -0.0021669124057 -0.0016393516815 -0.0010766184881 -0.00048136100039 0.00014291951864 0.00079207141908 0.0014591863245 0.0021369384015 
0.0028175165286 0.0034921234015 0.0041510896129 0.0047840616547 0.0053802673989 0.0059288575517 0.0064193142963 0.0068419095521 0.007188185967 
0.0074514253394 0.0076270632941 0.0077130073689 0.0077098195113 0.0076207338 0.0074514952658 0.0072100238955 0.0069059260101 0.006549889584 
0.0061530076444 0.0057260735651 0.0052788852115 -0.004169652861 -0.0046308776223 -0.0050173753064 -0.0053328853453 -0.0055821472926 -0.0057701556096 
-0.0059017211834 -0.0059811899615 -0.0060122799552 -0.0059980063748 -0.0059406708239 -0.00584189649 -0.0057026963013 -0.005523561948 -0.0053045666826 
-0.005045476946 -0.0047458679094 -0.0044052407924 -0.004023141556 -0.003599281592 -0.0031336580395 -0.002626676832 -0.0020792774153 -0.0014930576652 
-0.00087039648318 -0.00021456752358 0.00047017390728 0.001177565178 0.0018993099228 0.0026272454688 0.0033520097927 0.0040631483599 0.0047493005764 
0.0053984771948 0.005998431553 0.0065371184224 0.0070032233045 0.007386733018 0.0076795069128 0.0078757991123 0.0079726780914 0.0079702926037 
0.0078719435591 0.0076839394757 0.0074152362666 0.0070768863944 0.0066813429174 0.0062416763624 0.005770764346 0.0052805066084 -0.0046484434365 
-0.0051354960548 -0.0055440091533 -0.0058779100564 -0.006142275194 -0.0063425094153 -0.0064838479499 -0.0065710324622 -0.0066081206465 -0.0065983956887 
-0.0065443484051 -0.0064477121978 -0.0063095335109 -0.0061302656666 -0.0059098779535 -0.0056479733443 -0.0053439095137 -0.0049969226182 -0.0046062537195 
-0.0041712743328 -0.0036916166567 -0.0031673064551 -0.0025988996244 -0.0019876219848 -0.0013355100509 -0.00064554888688 7.8194795898e-05 0.00083007400888 
0.0016008769271 0.0023821155052 0.0031638757496 0.0039348919002 0.004682718687 0.005394012277 0.0060549269496 0.0066516252745 0.007170886464 
0.0076007822503 0.0079313740287 0.0081553716564 0.0082686862982 0.0082708100535 0.0081649658748 0.0079579926982 0.0076599604318 0.0072835425428 
0.0068432038127 0.0063542807734 0.0058320383161 0.005290777479 -0.0052089520264 -0.005723165213 -0.0061547463727 -0.0065078557041 -0.0067879532455 
-0.0070009004376 -0.0071524002148 -0.0072476288043 -0.0072910165626 -0.0072861407814 -0.0072357011613 -0.0071415537772 -0.0070047843571 -0.0068258074081 
-0.006604481896 -0.006340233727 -0.0060321831851 -0.0056792756156 -0.0052804107201 -0.0048345768815 -0.004340987652 -0.0037992240736 -0.0032093830212 
-0.0025722327042 -0.001889373101 -0.0011633954815 -0.00039802730841 0.00040207762875 0.0012266443357 0.0020669659067 0.0029126396861 0.0037516020984 
0.0045702753865 0.0053538395002 0.0060866447088 0.0067527697682 0.0073367145681 0.0078241968346 0.0082030015022 0.0084638118331 0.0086009373368 
0.0086128494983 0.0085024459672 0.0082769887205 0.007947699821 0.0075290437993 0.0070377692563 0.0064918141083 0.0059091909439 0.0053069605085 
-0.0058553548607 -0.0063983954255 -0.0068543682446 -0.0072277153591 -0.0075243367929 -0.0077506098334 -0.0079127632347 -0.0080164616718 -0.0080665553547 
-0.0080669553222 -0.0080206013509 -0.0079294948005 -0.0077947750557 -0.0076168250477 -0.0073953919164 -0.0071297158004 -0.0068186642744 -0.0064608651763 
-0.0060548431704 -0.0055991575489 -0.0050925454354 -0.0045340709792 -0.0039232858486 -0.0032604002147 -0.0025464647883 -0.0017835630141 -0.00097501087583 
-0.00012369341611 0.0007586961251 0.001663455053 0.00257981496 0.0034949826596 0.0043942490546 0.0052612312225 0.0060782832528 0.0068270918893 
0.0074894534385 0.0080482046541 0.0084882528166 0.0087976222607 0.0089684115679 0.008997544068 0.0088872003477 0.0086448489037 0.0082828391462 
0.0078175829512 0.0072684145644 0.0066562684149 0.0060023385205 0.0053268732173 -0.0065922136884 -0.0071660718376 -0.0076480217627 -0.0080428396139 
-0.0083569312377 -0.0085972623435 -0.0087706608729 -0.0088833493228 -0.0089406601794 -0.0089468917887 -0.0089052676864 -0.0088179681356 -0.0086862108445 
-0.0085103621634 -0.0082900634256 -0.0080243680184 -0.0077118784095 -0.0073508849417 -0.0069395050748 -0.0064758248899 -0.0059580444649 -0.005384635242 
-0.0047545077272 -0.0040671962066 -0.0033230626872 -0.0025235190237 -0.0016712540475 -0.00076728703469 0.00017590061471 0.0011496626928 0.0021430034584 
0.0031425388298 0.0041325056396 0.0050949344176 0.0060100290342 0.0068567789403 0.007613811537 0.0082604651098 0.008778027753 0.0091510489519 
0.0093685946289 0.0094252924593 0.0093220120463 0.0090660519514 0.0086707645909 0.0081546336709 0.0075399108978 0.0068509970849 0.0061127941262 
0.005349250145 -0.007424533614 -0.0080315236208 -0.0085412943109 -0.0089590110817 -0.0092916613707 -0.0095468862719 -0.0097322027295 -0.0098544775706 
-0.0099196044989 -0.0099323380097 -0.0098962428606 -0.009813724556 -0.0096861148695 -0.0095137881224 -0.0092962967157 -0.0090325129806 -0.0087207714342 
-0.0083590115322 -0.0079449183533 -0.0074760633302 -0.0069500542459 -0.0063646912806 -0.0057181414456 -0.0050091331725 -0.0042371773682 -0.0034028289609 
-0.0025080390525 -0.0015519254193 -0.00054634325398 0.00049978242257 0.0015754652394 0.0026670019986 0.0037577734277 0.0048283020436 0.0058565624616 
0.0068185768952 0.0076893204553 0.0084439324948 0.0090591875414 0.0095151264747 0.0097966939751 0.0098951848859 0.0098092849084 0.0095455133627 
0.0091179442899 0.0085471926844 0.0078587838513 0.007081144868 0.0062435325475 0.005374214842 -0.008357823996 -0.0090005980588 -0.009540294229 
-0.0099825249479 -0.010334946004 -0.010605976961 -0.010803932378 -0.010936429336 -0.011010020432 -0.011030002495 -0.011000354672 -0.010923768618 
-0.010801737993 -0.010634683052 -0.010422094478 -0.010162680653 -0.0098545168026 -0.0094951890509 -0.0090819332497 -0.0086117781004 -0.0080816876954 
-0.0074887191052 -0.006830194737 -0.0061038987552 -0.0053083004978 -0.0044427983972 -0.0035079454526 -0.0025043361147 -0.0014360579999 -0.00031595250652 
0.00084586855194 0.0020358947215 0.0032370154052 0.0044284714849 0.0055860544222 0.0066826325612 0.0076890655335 0.0085755330802 0.0093132503406 
0.0098764716073 0.010244607166 0.010404206702 0.010350518382 0.010088338391 0.0096319398345 0.0090040094705 0.0082337083995 0.0073541561209 
0.0063997656994 0.0054038866799 -0.0093981688667 -0.010079746185 -0.010651743753 -0.011120281435 -0.011493782695 -0.011781567557 -0.011992878892 
-0.01213621273 -0.012218900241 -0.0122468868 -0.012224657646 -0.012155267492 -0.012040435269 -0.011880679077 -0.0116754679 -0.011423378896 
-0.011122250624 -0.010769326054 -0.010361394081 -0.0098949227926 -0.0093661992958 -0.0087714766906 -0.0081071417527 -0.0073699088668 -0.0065570471021 
-0.0056666406297 -0.0046978626379 -0.0036511983052 -0.0025237441821 -0.001330959103 -8.1661870176e-05 0.0012113643713 0.0025310373371 0.0038557336012 
0.0051592909409 0.0064113844461 0.0075783795092 0.008624726855 0.0095149074113 0.010215850023 0.010699635521 0.010946186841 0.010945557789 
0.010699409099 0.010221324777 0.0095357956745 0.0086759476986 0.007680373772 0.0065896439493 0.0054431430945 -0.01055231433 -0.011276127897 
-0.011883092178 -0.012379897336 -0.012775848731 -0.013081311668 -0.013306614696 -0.013461289155 -0.013553590622 -0.013590243168 -0.013576351587 
-0.013515429296 -0.013409501113 -0.013259250424 -0.013064182993 -0.01282279317 -0.012532720374 -0.012190897702 -0.01179368528 -0.011336997565 
-0.010816429025 -0.010227389341 -0.0095652563672 -0.0088255605146 -0.0080042134619 -0.0070977976514 -0.006103948118 -0.0050219008423 -0.0038424542575 
-0.0025818877633 -0.0012471252346 0.00015045381966 0.0015945332117 0.0030632973721 0.0045291251233 0.005958702257 0.0073136967023 0.008552125141 
0.009630480836 0.01050658442 0.011142976152 0.011510505358 0.01159162311 0.011382795627 0.010895493554 0.010155401179 0.0091998322378 
0.0080737454574 0.00682511356 0.0055005677063 -0.011827781873 -0.012597746294 -0.013242658973 -0.013769845629 -0.014189626014 -0.014513583718 