# vtk DataFile Version 4.1
vtk output
ASCII
DATASET STRUCTURED_GRID
DIMENSIONS 51 51 1
POINTS 2601 float
0 0 0 0.02 0 0 0.04 0 0 
0.06 0 0 0.08 0 0 0.1 0 0 
0.12 0 0 0.14 0 0 0.16 0 0 
0.18 0 0 0.2 0 0 0.22 0 0 
0.24 0 0 0.26 0 0 0.28 0 0 
0.3 0 0 0.32 0 0 0.34 0 0 
0.36 0 0 0.38 0 0 0.4 0 0 
0.42 0 0 0.44 0 0 0.46 0 0 
0.48 0 0 0.5 0 0 0.52 0 0 
0.54 0 0 0.56 0 0 0.58 0 0 
0.6 0 0 0.62 0 0 0.64 0 0 
0.66 0 0 0.68 0 0 0.7 0 0 
0.72 0 0 0.74 0 0 0.76 0 0 
0.78 0 0 0.8 0 0 0.82 0 0 
0.84 0 0 0.86 0 0 0.88 0 0 
0.9 0 0 0.92 0 0 0.94 0 0 
0.96 0 0 0.98 0 0 1 0 0 
0 0.02 0 0.02 0.02 0 0.04 0.02 0 
0.06 0.02 0 0.08 0.02 0 0.1 0.02 0 
0.12 0.02 0 0.14 0.02 0 0.16 0.02 0 
0.18 0.02 0 0.2 0.02 0 0.22 0.02 0 
0.24 0.02 0 0.26 0.02 0 0.28 0.02 0 
0.3 0.02 0 0.32 0.02 0 0.34 0.02 0 
0.36 0.02 0 0.38 0.02 0 0.4 0.02 0 
0.42 0.02 0 0.44 0.02 0 0.46 0.02 0 
0.48 0.02 0 0.5 0.02 0 0.52 0.02 0 
0.54 0.02 0 0.56 0.02 0 0.58 0.02 0 
0.6 0.02 0 0.62 0.02 0 0.64 0.02 0 
0.66 0.02 0 0.68 0.02 0 0.7 0.02 0 
0.72 0.02 0 0.74 0.02 0 0.76 0.02 0 
0.78 0.02 0 0.8 0.02 0 0.82 0.02 0 
0.84 0.02 0 0.86 0.02 0 0.88 0.02 0 
0.9 0.02 0 0.92 0.02 0 0.94 0.02 0 
0.96 0.02 0 0.98 0.02 0 1 0.02 0 
0 0.04 0 0.02 0.04 0 0.04 0.04 0 
0.06 0.04 0 0.08 0.04 0 0.1 0.04 0 
0.12 0.04 0 0.14 0.04 0 0.16 0.04 0 
0.18 0.04 0 0.2 0.04 0 0.22 0.04 0 
0.24 0.04 0 0.26 0.04 0 0.28 0.04 0 
0.3 0.04 0 0.32 0.04 0 0.34 0.04 0 
0.36 0.04 0 0.38 0.04 0 0.4 0.04 0 
0.42 0.04 0 0.44 0.04 0 0.46 0.04 0 
0.48 0.04 0 0.5 0.04 0 0.52 0.04 0 
0.54 0.04 0 0.56 0.04 0 0.58 0.04 0 
0.6 0.04 0 0.62 0.04 0 0.64 0.04 0 
0.66 0.04 0 0.68 0.04 0 0.7 0.04 0 
0.72 0.04 0 0.74 0.04 0 0.76 0.04 0 
0.78 0.04 0 0.8 0.04 0 0.82 0.04 0 
0.84 0.04 0 0.86 0.04 0 0.88 0.04 0 
0.9 0.04 0 0.92 0.04 0 0.94 0.04 0 
0.96 0.04 0 0.98 0.04 0 1 0.04 0 
0 0.06 0 0.02 0.06 0 0.04 0.06 0 
0.06 0.06 0 0.08 0.06 0 0.1 0.06 0 
0.12 0.06 0 0.14 0.06 0 0.16 0.06 0 
0.18 0.06 0 0.2 0.06 0 0.22 0.06 0 
0.24 0.06 0 0.26 0.06 0 0.28 0.06 0 
0.3 0.06 0 0.32 0.06 0 0.34 0.06 0 
0.36 0.06 0 0.38 0.06 0 0.4 0.06 0 
0.42 0.06 0 0.44 0.06 0 0.46 0.06 0 
0.48 0.06 0 0.5 0.06 0 0.52 0.06 0 
0.54 0.06 0 0.56 0.06 0 0.58 0.06 0 
0.6 0.06 0 0.62 0.06 0 0.64 0.06 0 
0.66 0.06 0 0.68 0.06 0 0.7 0.06 0 
0.72 0.06 0 0.74 0.06 0 0.76 0.06 0 
0.78 0.06 0 0.8 0.06 0 0.82 0.06 0 
0.84 0.06 0 0.86 0.06 0 0.88 0.06 0 
0.9 0.06 0 0.92 0.06 0 0.94 0.06 0 
0.96 0.06 0 0.98 0.06 0 1 0.06 0 
0 0.08 0 0.02 0.08 0 0.04 0.08 0 
0.06 0.08 0 0.08 0.08 0 0.1 0.08 0 
0.12 0.08 0 0.14 0.08 0 0.16 0.08 0 
0.18 0.08 0 0.2 0.08 0 0.22 0.08 0 
0.24 0.08 0 0.26 0.08 0 0.28 0.08 0 
0.3 0.08 0 0.32 0.08 0 0.34 0.08 0 
0.36 0.08 0 0.38 0.08 0 0.4 0.08 0 
0.42 0.08 0 0.44 0.08 0 0.46 0.08 0 
0.48 0.08 0 0.5 0.08 0 0.52 0.08 0 
0.54 0.08 0 0.56 0.08 0 0.58 0.08 0 
0.6 0.08 0 0.62 0.08 0 0.64 0.08 0 
0.66 0.08 0 0.68 0.08 0 0.7 0.08 0 
0.72 0.08 0 0.74 0.08 0 0.76 0.08 0 
0.78 0.08 0 0.8 0.08 0 0.82 0.08 0 
0.84 0.08 0 0.86 0.08 0 0.88 0.08 0 
0.9 0.08 0 0.92 0.08 0 0.94 0.08 0 
0.96 0.08 0 0.98 0.08 0 1 0.08 0 
0 0.1 0 0.02 0.1 0 0.04 0.1 0 
0.06 0.1 0 0.08 0.1 0 0.1 0.1 0 
0.12 0.1 0 0.14 0.1 0 0.16 0.1 0 
0.18 0.1 0 0.2 0.1 0 0.22 0.1 0 
0.24 0.1 0 0.26 0.1 0 0.28 0.1 0 
0.3 0.1 0 0.32 0.1 0 0.34 0.1 0 
0.36 0.1 0 0.38 0.1 0 0.4 0.1 0 
0.42 0.1 0 0.44 0.1 0 0.46 0.1 0 
0.48 0.1 0 0.5 0.1 0 0.52 0.1 0 
0.54 0.1 0 0.56 0.1 0 0.58 0.1 0 
0.6 0.1 0 0.62 0.1 0 0.64 0.1 0 
0.66 0.1 0 0.68 0.1 0 0.7 0.1 0 
0.72 0.1 0 0.74 0.1 0 0.76 0.1 0 
0.78 0.1 0 0.8 0.1 0 0.82 0.1 0 
0.84 0.1 0 0.86 0.1 0 0.88 0.1 0 
0.9 0.1 0 0.92 0.1 0 0.94 0.1 0 
0.96 0.1 0 0.98 0.1 0 1 0.1 0 
0 0.12 0 0.02 0.12 0 0.04 0.12 0 
0.06 0.12 0 0.08 0.12 0 0.1 0.12 0 
0.12 0.12 0 0.14 0.12 0 0.16 0.12 0 
0.18 0.12 0 0.2 0.12 0 0.22 0.12 0 
0.24 0.12 0 0.26 0.12 0 0.28 0.12 0 
0.3 0.12 0 0.32 0.12 0 0.34 0.12 0 
0.36 0.12 0 0.38 0.12 0 0.4 0.12 0 
0.42 0.12 0 0.44 0.12 0 0.46 0.12 0 
0.48 0.12 0 0.5 0.12 0 0.52 0.12 0 
0.54 0.12 0 0.56 0.12 0 0.58 0.12 0 
0.6 0.12 0 0.62 0.12 0 0.64 0.12 0 
0.66 0.12 0 0.68 0.12 0 0.7 0.12 0 
0.72 0.12 0 0.74 0.12 0 0.76 0.12 0 
0.78 0.12 0 0.8 0.12 0 0.82 0.12 0 
0.84 0.12 0 0.86 0.12 0 0.88 0.12 0 
0.9 0.12 0 0.92 0.12 0 0.94 0.12 0 
0.96 0.12 0 0.98 0.12 0 1 0.12 0 
0 0.14 0 0.02 0.14 0 0.04 0.14 0 
0.06 0.14 0 0.08 0.14 0 0.1 0.14 0 
0.12 0.14 0 0.14 0.14 0 0.16 0.14 0 
0.18 0.14 0 0.2 0.14 0 0.22 0.14 0 
0.24 0.14 0 0.26 0.14 0 0.28 0.14 0 
0.3 0.14 0 0.32 0.14 0 0.34 0.14 0 
0.36 0.14 0 0.38 0.14 0 0.4 0.14 0 
0.42 0.14 0 0.44 0.14 0 0.46 0.14 0 
0.48 0.14 0 0.5 0.14 0 0.52 0.14 0 
0.54 0.14 0 0.56 0.14 0 0.58 0.14 0 
0.6 0.14 0 0.62 0.14 0 0.64 0.14 0 
0.66 0.14 0 0.68 0.14 0 0.7 0.14 0 
0.72 0.14 0 0.74 0.14 0 0.76 0.14 0 
0.78 0.14 0 0.8 0.14 0 0.82 0.14 0 
0.84 0.14 0 0.86 0.14 0 0.88 0.14 0 
0.9 0.14 0 0.92 0.14 0 0.94 0.14 0 
0.96 0.14 0 0.98 0.14 0 1 0.14 0 
0 0.16 0 0.02 0.16 0 0.04 0.16 0 
0.06 0.16 0 0.08 0.16 0 0.1 0.16 0 
0.12 0.16 0 0.14 0.16 0 0.16 0.16 0 
0.18 0.16 0 0.2 0.16 0 0.22 0.16 0 
0.24 0.16 0 0.26 0.16 0 0.28 0.16 0 
0.3 0.16 0 0.32 0.16 0 0.34 0.16 0 
0.36 0.16 0 0.38 0.16 0 0.4 0.16 0 
0.42 0.16 0 0.44 0.16 0 0.46 0.16 0 
0.48 0.16 0 0.5 0.16 0 0.52 0.16 0 
0.54 0.16 0 0.56 0.16 0 0.58 0.16 0 
0.6 0.16 0 0.62 0.16 0 0.64 0.16 0 
0.66 0.16 0 0.68 0.16 0 0.7 0.16 0 
0.72 0.16 0 0.74 0.16 0 0.76 0.16 0 
0.78 0.16 0 0.8 0.16 0 0.82 0.16 0 
0.84 0.16 0 0.86 0.16 0 0.88 0.16 0 
0.9 0.16 0 0.92 0.16 0 0.94 0.16 0 
0.96 0.16 0 0.98 0.16 0 1 0.16 0 
0 0.18 0 0.02 0.18 0 0.04 0.18 0 
0.06 0.18 0 0.08 0.18 0 0.1 0.18 0 
0.12 0.18 0 0.14 0.18 0 0.16 0.18 0 
0.18 0.18 0 0.2 0.18 0 0.22 0.18 0 
0.24 0.18 0 0.26 0.18 0 0.28 0.18 0 
0.3 0.18 0 0.32 0.18 0 0.34 0.18 0 
0.36 0.18 0 0.38 0.18 0 0.4 0.18 0 
0.42 0.18 0 0.44 0.18 0 0.46 0.18 0 
0.48 0.18 0 0.5 0.18 0 0.52 0.18 0 
0.54 0.18 0 0.56 0.18 0 0.58 0.18 0 
0.6 0.18 0 0.62 0.18 0 0.64 0.18 0 
0.66 0.18 0 0.68 0.18 0 0.7 0.18 0 
0.72 0.18 0 0.74 0.18 0 0.76 0.18 0 
0.78 0.18 0 0.8 0.18 0 0.82 0.18 0 
0.84 0.18 0 0.86 0.18 0 0.88 0.18 0 
0.9 0.18 0 0.92 0.18 0 0.94 0.18 0 
0.96 0.18 0 0.98 0.18 0 1 0.18 0 
0 0.2 0 0.02 0.2 0 0.04 0.2 0 
0.06 0.2 0 0.08 0.2 0 0.1 0.2 0 
0.12 0.2 0 0.14 0.2 0 0.16 0.2 0 
0.18 0.2 0 0.2 0.2 0 0.22 0.2 0 
0.24 0.2 0 0.26 0.2 0 0.28 0.2 0 
0.3 0.2 0 0.32 0.2 0 0.34 0.2 0 
0.36 0.2 0 0.38 0.2 0 0.4 0.2 0 
0.42 0.2 0 0.44 0.2 0 0.46 0.2 0 
0.48 0.2 0 0.5 0.2 0 0.52 0.2 0 
0.54 0.2 0 0.56 0.2 0 0.58 0.2 0 
0.6 0.2 0 0.62 0.2 0 0.64 0.2 0 
0.66 0.2 0 0.68 0.2 0 0.7 0.2 0 
0.72 0.2 0 0.74 0.2 0 0.76 0.2 0 
0.78 0.2 0 0.8 0.2 0 0.82 0.2 0 
0.84 0.2 0 0.86 0.2 0 0.88 0.2 0 
0.9 0.2 0 0.92 0.2 0 0.94 0.2 0 
0.96 0.2 0 0.98 0.2 0 1 0.2 0 
0 0.22 0 0.02 0.22 0 0.04 0.22 0 
0.06 0.22 0 0.08 0.22 0 0.1 0.22 0 
0.12 0.22 0 0.14 0.22 0 0.16 0.22 0 
0.18 0.22 0 0.2 0.22 0 0.22 0.22 0 
0.24 0.22 0 0.26 0.22 0 0.28 0.22 0 
0.3 0.22 0 0.32 0.22 0 0.34 0.22 0 
0.36 0.22 0 0.38 0.22 0 0.4 0.22 0 
0.42 0.22 0 0.44 0.22 0 0.46 0.22 0 
0.48 0.22 0 0.5 0.22 0 0.52 0.22 0 
0.54 0.22 0 0.56 0.22 0 0.58 0.22 0 
0.6 0.22 0 0.62 0.22 0 0.64 0.22 0 
0.66 0.22 0 0.68 0.22 0 0.7 0.22 0 
0.72 0.22 0 0.74 0.22 0 0.76 0.22 0 
0.78 0.22 0 0.8 0.22 0 0.82 0.22 0 
0.84 0.22 0 0.86 0.22 0 0.88 0.22 0 
0.9 0.22 0 0.92 0.22 0 0.94 0.22 0 
0.96 0.22 0 0.98 0.22 0 1 0.22 0 
0 0.24 0 0.02 0.24 0 0.04 0.24 0 
0.06 0.24 0 0.08 0.24 0 0.1 0.24 0 
0.12 0.24 0 0.14 0.24 0 0.16 0.24 0 
0.18 0.24 0 0.2 0.24 0 0.22 0.24 0 
0.24 0.24 0 0.26 0.24 0 0.28 0.24 0 
0.3 0.24 0 0.32 0.24 0 0.34 0.24 0 
0.36 0.24 0 0.38 0.24 0 0.4 0.24 0 
0.42 0.24 0 0.44 0.24 0 0.46 0.24 0 
0.48 0.24 0 0.5 0.24 0 0.52 0.24 0 
0.54 0.24 0 0.56 0.24 0 0.58 0.24 0 
0.6 0.24 0 0.62 0.24 0 0.64 0.24 0 
0.66 0.24 0 0.68 0.24 0 0.7 0.24 0 
0.72 0.24 0 0.74 0.24 0 0.76 0.24 0 
0.78 0.24 0 0.8 0.24 0 0.82 0.24 0 
0.84 0.24 0 0.86 0.24 0 0.88 0.24 0 
0.9 0.24 0 0.92 0.24 0 0.94 0.24 0 
0.96 0.24 0 0.98 0.24 0 1 0.24 0 
0 0.26 0 0.02 0.26 0 0.04 0.26 0 
0.06 0.26 0 0.08 0.26 0 0.1 0.26 0 
0.12 0.26 0 0.14 0.26 0 0.16 0.26 0 
0.18 0.26 0 0.2 0.26 0 0.22 0.26 0 
0.24 0.26 0 0.26 0.26 0 0.28 0.26 0 
0.3 0.26 0 0.32 0.26 0 0.34 0.26 0 
0.36 0.26 0 0.38 0.26 0 0.4 0.26 0 
0.42 0.26 0 0.44 0.26 0 0.46 0.26 0 
0.48 0.26 0 0.5 0.26 0 0.52 0.26 0 
0.54 0.26 0 0.56 0.26 0 0.58 0.26 0 
0.6 0.26 0 0.62 0.26 0 0.64 0.26 0 
0.66 0.26 0 0.68 0.26 0 0.7 0.26 0 
0.72 0.26 0 0.74 0.26 0 0.76 0.26 0 
0.78 0.26 0 0.8 0.26 0 0.82 0.26 0 
0.84 0.26 0 0.86 0.26 0 0.88 0.26 0 
0.9 0.26 0 0.92 0.26 0 0.94 0.26 0 
0.96 0.26 0 0.98 0.26 0 1 0.26 0 
0 0.28 0 0.02 0.28 0 0.04 0.28 0 
0.06 0.28 0 0.08 0.28 0 0.1 0.28 0 
0.12 0.28 0 0.14 0.28 0 0.16 0.28 0 
0.18 0.28 0 0.2 0.28 0 0.22 0.28 0 
0.24 0.28 0 0.26 0.28 0 0.28 0.28 0 
0.3 0.28 0 0.32 0.28 0 0.34 0.28 0 
0.36 0.28 0 0.38 0.28 0 0.4 0.28 0 
0.42 0.28 0 0.44 0.28 0 0.46 0.28 0 
0.48 0.28 0 0.5 0.28 0 0.52 0.28 0 
0.54 0.28 0 0.56 0.28 0 0.58 0.28 0 
0.6 0.28 0 0.62 0.28 0 0.64 0.28 0 
0.66 0.28 0 0.68 0.28 0 0.7 0.28 0 
0.72 0.28 0 0.74 0.28 0 0.76 0.28 0 
0.78 0.28 0 0.8 0.28 0 0.82 0.28 0 
0.84 0.28 0 0.86 0.28 0 0.88 0.28 0 
0.9 0.28 0 0.92 0.28 0 0.94 0.28 0 
0.96 0.28 0 0.98 0.28 0 1 0.28 0 
0 0.3 0 0.02 0.3 0 0.04 0.3 0 
0.06 0.3 0 0.08 0.3 0 0.1 0.3 0 
0.12 0.3 0 0.14 0.3 0 0.16 0.3 0 
0.18 0.3 0 0.2 0.3 0 0.22 0.3 0 
0.24 0.3 0 0.26 0.3 0 0.28 0.3 0 
0.3 0.3 0 0.32 0.3 0 0.34 0.3 0 
0.36 0.3 0 0.38 0.3 0 0.4 0.3 0 
0.42 0.3 0 0.44 0.3 0 0.46 0.3 0 
0.48 0.3 0 0.5 0.3 0 0.52 0.3 0 
0.54 0.3 0 0.56 0.3 0 0.58 0.3 0 
0.6 0.3 0 0.62 0.3 0 0.64 0.3 0 
0.66 0.3 0 0.68 0.3 0 0.7 0.3 0 
0.72 0.3 0 0.74 0.3 0 0.76 0.3 0 
0.78 0.3 0 0.8 0.3 0 0.82 0.3 0 
0.84 0.3 0 0.86 0.3 0 0.88 0.3 0 
0.9 0.3 0 0.92 0.3 0 0.94 0.3 0 
0.96 0.3 0 0.98 0.3 0 1 0.3 0 
0 0.32 0 0.02 0.32 0 0.04 0.32 0 
0.06 0.32 0 0.08 0.32 0 0.1 0.32 0 
0.12 0.32 0 0.14 0.32 0 0.16 0.32 0 
0.18 0.32 0 0.2 0.32 0 0.22 0.32 0 
0.24 0.32 0 0.26 0.32 0 0.28 0.32 0 
0.3 0.32 0 0.32 0.32 0 0.34 0.32 0 
0.36 0.32 0 0.38 0.32 0 0.4 0.32 0 
0.42 0.32 0 0.44 0.32 0 0.46 0.32 0 
0.48 0.32 0 0.5 0.32 0 0.52 0.32 0 
0.54 0.32 0 0.56 0.32 0 0.58 0.32 0 
[...]
CELL_DATA 2500
FIELD FieldData 1
pressure 1 2500 double
0.0061851173668 0.0061152877159 0.0059226405717 0.0056474278457 0.0053301211128 0.0050032006305 0.0046906980049 0.004409830676 0.0041727335134 
0.0039877966282 0.0038606760569 0.0037950688296 0.0037932651047 0.0038565064948 0.0039852376361 0.0041793215379 0.0044382058097 0.0047609763117 
0.0051462657219 0.0055920496764 0.0060953978636 0.0066522360623 0.007257144733 0.0079032006231 0.0085818634 0.0092829040689 0.0099940027859 
0.010701924927 0.011392722685 0.012051855442 0.012664614961 0.013216649705 0.013694555493 0.014086499265 0.01438284091 0.014576716188 
0.014664544142 0.01464642601 0.014526409905 0.01431260715 0.014017160598 0.013656080861 0.013248980342 0.012818740788 0.012391146707 
0.011994385961 0.01165828655 0.011412390187 0.011280785089 0.011268377635 0.0062499986778 0.0061825826295 0.0060204888588 0.0057933022617 
0.0055298961619 0.0052555044989 0.0049906225289 0.0047510598689 0.0045484497445 0.0043909694925 0.0042841460531 0.0042315865174 0.0042355348131 
0.0042972769734 0.0044174559304 0.0045962977131 0.0048337029285 0.0051291866839 0.0054817119626 0.0058894868395 0.0063497744524 0.0068587295803 
0.0074112599204 0.0080009167358 0.0086198302608 0.0092587112841 0.0099059664594 0.010549614411 0.011177087493 0.011775307369 0.012331096106 
0.012831659266 0.013265121377 0.013621086693 0.013891193931 0.014069631146 0.014153577444 0.014143541342 0.014043572506 0.013861333701 
0.013608031152 0.013298213106 0.012949454229 0.012581941969 0.012217962311 0.011881230397 0.011595870983 0.011384845624 0.011267320327 
0.011255960456 0.0064444032574 0.0063477033612 0.0061826967022 0.0059711425215 0.0057345695602 0.0054924736093 0.0052612341824 0.0050536837758 
0.0048792610803 0.0047446003757 0.0046542718352 0.0046114143876 0.0046181865302 0.0046760893719 0.0047861957595 0.0049492557331 0.0051656587494 
0.0054352969659 0.0057574039258 0.0061304146296 0.0065518485388 0.0070181978657 0.0075248170285 0.0080658304688 0.0086340832526 0.0092211564122 
0.0098159716926 0.010407583767 0.010984472804 0.011534625804 0.012045934797 0.012506656908 0.012905918962 0.013234242732 0.013484061269 
0.01365019387 0.013730247276 0.013724913339 0.013638140266 0.013477163502 0.013252392563 0.012977160767 0.012667351437 0.012340914916 
0.012017281835 0.011716657547 0.011459155742 0.011263806642 0.011147663949 0.01112616355 0.0067301014318 0.0065785143559 0.0063866431343 
0.0061693565371 0.005941730943 0.0057175404583 0.005508372762 0.0053232629899 0.0051688814008 0.0050500771006 0.0049704445436 0.0049327217606 
0.004939041196 0.004991108913 0.005090313779 0.0052377289702 0.0054340174153 0.0056793050231 0.0059730729045 0.0063140713138 0.0067002285774 
0.0071285381318 0.0075949364319 0.0080942009336 0.0086198923964 0.0091643573923 0.0097169175513 0.01026741347 0.010805062007 0.011318561492 
0.011796478754 0.012227696031 0.012601900868 0.012910095857 0.013145098695 0.013301999939 0.013378544855 0.013375408338 0.013296338665 
0.013148154276 0.012940588829 0.012685991163 0.012398895505 0.012095483621 0.011792961746 0.011508874889 0.011260391535 0.011063649156 
0.010933371812 0.010883206738 0.0070651451128 0.0068455434761 0.0066134332177 0.0063772814339 0.0061459061695 0.0059275388112 0.0057291739676 
0.0055563233023 0.0054132038688 0.0053031192685 0.0052287599237 0.0051923589352 0.0051957918686 0.005240671894 0.0053284000644 0.0054601306783 
0.005636677791 0.0058584164344 0.0061251983149 0.0064362623235 0.0067901149871 0.0071843825292 0.0076156625366 0.008079405399 0.008569842562 
0.0090799719973 0.009599440965 0.010118623545 0.010627216395 0.011114335144 0.011568892014 0.01198003643 0.012337642323 0.01263281819 
0.012858409244 0.013009457282 0.013083581874 0.013081249424 0.013005903074 0.012863935321 0.01266449803 0.012419157384 0.012141413804 
0.011846117991 0.011548821191 0.011265103834 0.011009934892 0.010797131014 0.010639002387 0.010546205603 0.0074152817626 0.0071237318503 
0.0068446148018 0.0065806470967 0.0063352813993 0.0061121606113 0.0059145516727 0.0057451103785 0.0056059840474 0.0054989998456 0.0054257607984 
0.0053876810127 0.0053860498276 0.0054221182729 0.0054971327546 0.005612283409 0.0057686026185 0.0059668555211 0.0062074269975 0.0064901855939 
0.0068143145407 0.0071781273125 0.0075788986383 0.0080127325502 0.0084744763957 0.0089576888434 0.0094523191745 0.0099490410934 0.010437832195 
0.010907987215 0.011348488355 0.011748446283 0.012097595409 0.012386817766 0.012608662996 0.012757827011 0.012831549457 0.012829893201 
0.012755874979 0.012615426526 0.012417179937 0.012172086044 0.011892891123 0.011593511464 0.011288355187 0.010991646148 0.010716803247 
0.010475917137 0.010279328247 0.010135189107 0.0077537359204 0.0073902135613 0.0070600657125 0.0067616087537 0.006494357748 0.006258490858 
0.0060542953386 0.0058819549532 0.0057416118316 0.0056334559662 0.0055577510078 0.0055148692364 0.0055053833502 0.0055301530814 0.0055903244247 
0.005687233755 0.0058222652248 0.0059966973629 0.0062115388558 0.006467340576 0.0067639861606 0.0071004838379 0.0074747836237 0.0078836310003 
0.0083224619023 0.0087853480363 0.0092625767358 0.0097449049235 0.010222437916 0.010684453772 0.011119769762 0.01151719042 0.011866019654 
0.012156609485 0.012380910863 0.012532985598 0.012609436026 0.012609711447 0.012536255873 0.012394473202 0.012192501605 0.011940806768 
0.011651623658 0.011338293047 0.011014550796 0.010693831439 0.010388639077 0.010110013935 0.0098670713524 0.0096664989533 0.0080576117519 
0.0076228551539 0.0072391776394 0.0069020219306 0.0066080567064 0.0063546024909 0.0061392271741 0.0059596881846 0.005814050313 0.0057007686503 
0.0056187243724 0.0055672939396 0.0055464496462 0.0055568031508 0.0055995345521 0.0056762333503 0.0057887074916 0.0059387871764 0.0061281183868 
0.0063579375211 0.0066288356004 0.0069405328793 0.0072916788656 0.0076796825483 0.0081005786977 0.008548942396 0.0090154911468 0.0094908546713 
0.0099651464749 0.010427466232 0.010866265656 0.011269808063 0.011626703042 0.011926487998 0.012160220169 0.012321035059 0.012404624321 
0.012409587041 0.012337613534 0.012193473305 0.011984795515 0.01172165137 0.011415970653 0.011080843812 0.010729774775 0.010375952381 
0.010031596902 0.0097074091291 0.0094120994572 0.0091519065155 0.0083057088288 0.0078009219637 0.0073631559571 0.0069858504857 0.0066631498662 
0.006389581584 0.006159999966 0.0059697675135 0.0058149492084 0.0056924006258 0.0055998132423 0.005535786707 0.0054998885429 0.0054926195901 
0.0055152688788 0.0055697080512 0.0056581729763 0.0057830425604 0.0059466038825 0.0061507992495 0.0063969673417 0.006685595422 0.0070160910974 
0.0073865777526 0.0077937237098 0.0082326204975 0.0086945609308 0.009169840308 0.0096484940171 0.010119317496 0.010570231476 0.010988753276 
0.01136255601 0.011680087998 0.011931214732 0.012107836885 0.012204433497 0.012218478235 0.012150681407 0.012005023108 0.011788560631 
0.011511017302 0.01118418517 0.010821196613 0.010435736177 0.010041267639 0.0096503397561 0.0092740044665 0.0089213346689 0.0085989729978 
0.0084785442568 0.0079061451254 0.0074157810961 0.0069989243352 0.0066470437728 0.0063518220353 0.0061055103544 0.0059012939785 0.0057334985928 
0.0055976496887 0.0054905010803 0.0054100753185 0.005355657147 0.0053276864957 0.0053275696519 0.0053574592927 0.0054200282673 0.0055182311252 
0.0056550425348 0.0058331753663 0.0060547934065 0.0063212318221 0.0066327309845 0.0069881908446 0.0073849602856 0.0078186784466 0.0082814192931 
0.0087629528324 0.0092531918675 0.0097405439997 0.010212271112 0.010654968302 0.011055146558 0.011399893076 0.011677571104 0.011878510945 
0.011995636927 0.012024971399 0.011965960877 0.011821581142 0.011598196968 0.011305178288 0.010954302634 0.010559000511 0.010133520055 
0.0096920938524 0.0092481808302 0.0088138273271 0.0083991474598 0.0080118729091 0.0085589143838 0.0079226456373 0.0073824359526 0.0069274697622 
0.0065464309917 0.0062283028065 0.0059630273894 0.0057419264373 0.0055578573307 0.0054052333386 0.0052800311978 0.0051797920775 0.0051035574325 
0.0050517200521 0.0050258240335 0.005028345998 0.0050624597197 0.0051317728597 0.005240032774 0.0053908118991 0.0055871878519 0.0058314273802 
0.0061246795975 0.0064666897448 0.0068555506606 0.0072875092534 0.0077557012367 0.0082492178239 0.0087578547892 0.0092695950476 0.009770952276 
0.010247450323 0.010684226019 0.011066731592 0.01138149926 0.01161691852 0.011763966512 0.011816825398 0.011773322739 0.011635140681 
0.01140775891 0.011100123817 0.010724067503 0.01029353198 0.0098236784517 0.0093299728536 0.0088273321711 0.0083293894299 0.007847893336 
0.0073922107877 0.0085316829168 0.0078359466847 0.007248947864 0.0067574183296 0.0063474012853 0.006005483293 0.0057195998299 0.0054794284 
0.0052765004552 0.0051042140602 0.0049578358618 0.0048344699575 0.004732954193 0.0046536917007 0.0045984479401 0.0045701237212 0.0045724960129 
0.004609921337 0.0046870083584 0.0048082732868 0.0049777894119 0.0051988361238 0.0054735541785 0.0058026214914 0.0061849679031 0.0066175492319 
0.0070949362424 0.0076054348543 0.0081387847378 0.0086825572701 0.0092224693142 0.0097428541147 0.010227278288 0.010659284662 0.011023226189 
0.011305141649 0.011493609681 0.01158050799 0.011561602881 0.011436901066 0.011210713841 0.010891411548 0.010490881011 0.01002373586 
0.0095063609443 0.0089558904245 0.0083892181363 0.0078221163234 0.0072684992602 0.0067398213549 0.0083829675628 0.0076321937969 0.0070013953306 
0.0064749586315 0.0060365468308 0.0056705974572 0.0053631855909 0.0051024048724 0.0048784946839 0.0046838824325 0.0045131849194 0.0043631440775 
0.0042324889412 0.0041217478325 0.0040330294127 0.0039697703184 0.0039364436859 0.0039382324573 0.0039806779604 0.0040693138074 0.0042092903074 
0.0044049923878 0.0046596595552 0.0049750229819 0.0053509771619 0.0057853064655 0.0062745616665 0.0068061404769 0.00736987018 0.0079529810145 
0.0085403919349 0.0091151643249 0.0096591231136 0.010153633663 0.010580505645 0.010922976824 0.011166710946 0.011300729682 0.011318191412 
0.011216931758 0.010999695894 0.010674019823 0.01025175586 0.0097482811048 0.009181468031 0.0085705248274 0.0079348212842 0.00729280049 
0.0066610405849 0.006053484183 0.0080995799264 0.0072981645869 0.0066267032493 0.0060674266836 0.0056017883781 0.0052121567656 0.0048827478936 
0.0046000645052 0.0043530896328 0.0041333617505 0.0039349559704 0.0037543728615 0.0035903591378 0.0034436894356 0.0033169176155 0.0032140933979 
0.0031404454262 0.0031020380307 0.0031054081991 0.0031571855707 0.0032636956766 0.003430549211 0.003662226915 0.0039616736758 0.0043299174638 
0.0047657335352 0.0052681406699 0.005823739652 0.0064226373693 0.0070518453219 0.0076955394883 0.0083354797125 0.0089516164283 0.009522888145 
0.010028190214 0.010447472443 0.010762899547 0.010959988334 0.011028620875 0.010963828288 0.010766249172 0.010442191519 0.010003267346 
0.0094656198046 0.0088488145496 0.0081745097825 0.0074650415198 0.0067420562076 0.0060252925856 0.005331568209 0.0076691166699 0.0068217452782 
0.0061131982657 0.0055236467996 0.0050323677 0.0046196415443 0.0042678123531 0.0039618367351 0.0036895458771 0.0034417214891 0.003212027851 
0.0029968418499 0.002795027713 0.0026076832621 0.0024378608996 0.0022902623143 0.0021709108762 0.0020868047793 0.0020455496871 0.0020549677504 
0.0021226814109 0.0022556756057 0.0024598470351 0.002739550676 0.0030971575 0.0035326525898 0.0040477199269 0.0046288101283 0.005266485995 
0.005947708701 0.0066560367091 0.0073719693046 0.008073507573 0.0087369503738 0.0093379156618 0.0098525518152 0.010258875795 0.010538147789 
0.01067616802 0.010664367065 0.01050056149 0.010189266151 0.0097414953393 0.0091740426163 0.0085082956153 0.0077687038793 0.0069810604118 
0.006170770207 0.0053612582981 0.0045726236909 0.0070803964182 0.0061922772358 0.0054506698525 0.0048336951688 0.004318452447 0.0038831507421 
0.0035083337075 0.003177538571 0.0028775901464 0.0025986410861 0.0023340410727 0.0020801112905 0.0018358790553 0.001602794019 0.0013844282986 
0.0011861621071 0.0010148560267 0.00087850553881 0.00078587056659 0.00074607461351 0.00076817209796 0.00086068717109 0.0010311293612 0.001285490817 
0.001627729462 0.0020592352976 0.0025843131009 0.0031906184398 0.0038691692074 0.0046071144918 0.0053876237237 0.0061900741374 0.0069905253101 
0.0077624844162 0.0084779595286 0.0091087762382 0.0096281019558 0.010012086992 0.010241496174 0.010303177206 0.010191199222 0.0099075050113 
0.0094619580637 0.0088717295146 0.0081600533407 0.007354465081 0.0064847109086 0.0055805519567 0.0046696834386 0.0037759432946 0.0063237665475 
0.0054005625914 0.0046301521439 0.0039886438848 0.0034510323141 0.0029935668775 0.0025951391433 0.0022380185523 0.0019081427882 0.0015951099254 
0.0012919945305 0.00099508181586 0.00070357289478 0.00041927907037 0.00014630961019 -0.00010924509309 -0.00033963909746 -0.0005358151949 -0.00068777731116 
-0.00078499670003 -0.00081685403905 -0.00077311678431 -0.00064445025018 -0.00042295959549 -0.0001027594818 0.00031940887607 0.00084850333395 0.001477958355 
0.002197609517 0.0029953297713 0.0038542959364 0.0047530300777 0.0056657683699 0.006563164877 0.0074133468694 0.0081833166663 0.0088406595746 
0.0093554727942 0.0097023813046 0.0098624619986 0.0098248660835 0.0095879240792 0.0091595465602 0.008556801242 0.0078046483154 0.0069339346699 
0.0059788587848 0.0049741936316 0.0039525741831 0.0029421156099 0.0053911435003 0.004438760775 0.0036438637269 0.0029806865222 0.0024222790593 
0.0019431013735 0.0015205497496 0.0011357410685 0.00077379038792 0.00042376802492 7.8482537132e-05 -0.00026581207602 -0.00060973475795 -0.00095110171395 
-0.0012852483545 -0.001605347948 -0.0019027353067 -0.0021672476518 -0.0023875924413 -0.0025517493469 -0.0026474119135 -0.0026624728694 -0.0025855547037 
-0.0024065794021 -0.0021173515493 -0.0017120731563 -0.0011874921491 -0.00053938680427 0.00021914068306 0.00107747466 0.002019332119 0.0030227775041 
0.0040604740286 0.00510028498 0.006106286299 0.0070402170708 0.0078633523314 0.0085387278819 0.0090335827454 0.0093218190141 0.0093862229056 
0.0092201610692 0.0088284778316 0.0082273839062 0.0074432455709 0.0065103401008 0.005467807008 0.0043561542496 0.0032137368291 0.0020735954616 
0.0042759917345 0.0033004576053 0.0024854486043 0.0018035347536 0.0012260157819 0.00072573092451 0.00027870594591 -0.00013501985575 -0.00053111669651 
-0.00092102333286 -0.0013121847549 -0.0017083689028 -0.0021100094984 -0.0025145489001 -0.0029167687467 -0.0033091088358 -0.0036819847301 -0.0040241168198 
-0.0043228823167 -0.004564701617 -0.0047354701131 -0.0048210450748 -0.0048077941515 -0.0046832050393 -0.004436545079 -0.0040595466428 -0.0035470941921 
-0.0028889470208 -0.002096943086 -0.0011799727436 -0.00015326171731 0.00096130875586 0.0021352323881 0.0033338044875 0.0045170256445 0.0056410430143 
0.0066601473031 0.007529281345 0.008206936735 0.0086582247969 0.0088578207802 0.0087924159845 0.0084622950483 0.007881707208 0.0070778310289 
0.0060883313584 0.0049577385806 0.0037330860712 0.0024593609228 0.0011753165118 0.0029734498788 0.0019809205302 0.0011502997681 0.00045271819963 
-0.00014208214471 -0.00066272796744 -0.0011344533656 -0.0015782236157 -0.0020104457826 -0.0024430352182 -0.002883673092 -0.0033361493459 -0.0038007299683 
-0.0042745150532 -0.0047517731595 -0.005224253801 -0.0056814895372 -0.006111101686 -0.006499125157 -0.0068303695439 -0.0070888330592 -0.0072581840476 
-0.0073223220321 -0.0072660262902 -0.0070756994136 -0.0067402297551 -0.0062520794724 -0.0055946188707 -0.0047776990848 -0.0038073202582 -0.0026968784008 
-0.0014675104536 -0.00014829902628 0.0012239082927 0.0026052114107 0.0039460092231 0.0051930532766 0.0062922000401 0.0071917650288 0.0078462658346 
0.0082202157058 0.0082915187257 0.0080539550301 0.0075182660809 0.0067114814962 0.0056743707718 0.0044572175331 0.0031144245019 0.0016986696347 
0.00025537288347 0.001480580091 0.0004773342465 -0.00036429804503 -0.0010743963119 -0.0016845682505 -0.0022247336281 -0.00272125364 -0.0031960021407 
-0.0036660602946 -0.0041437905596 -0.0046371146829 -0.0051498799939 -0.0056822439813 -0.0062310386287 -0.006790099572 -0.0073505627641 -0.0079011407939 
-0.0084283955332 -0.0089170276068 -0.0093502047575 -0.0097099497967 -0.0099776070382 -0.010134403855 -0.010162120649 -0.010043879626 -0.0097650596441 
-0.0093143238988 -0.0086735920856 -0.0078442046493 -0.0068293723059 -0.0056399935803 -0.0042956348529 -0.0028251551614 -0.0012668805462 0.00033181487988 
0.0019156660977 0.0034235290887 0.0047913009259 0.0059556991434 0.0068587100917 0.0074523473647 0.0077031917034 0.007596055905 0.0071360856838 
0.006348718848 0.0052772016729 0.0039777716332 0.002513065538 0.0009446631213 -0.0006742022462 -0.00020344073895 -0.0012111442998 -0.0020592374589 
-0.0027787346087 -0.003402333702 -0.003961032598 -0.0044821591604 -0.0049883921858 -0.0054974394029 -0.0060221151245 -0.0065706303095 -0.0071469701503 
-0.0077512833424 -0.0083802420584 -0.0090273571791 -0.0096832510805 -0.010335900789 -0.010970871366 -0.011571564137 -0.012119505028 -0.012594696895 
-0.01297605885 -0.013241974073 -0.013370964058 -0.013342501857 -0.013137969376 -0.012741764006 -0.012135714495 -0.011309400257 -0.010262891035 
-0.0090034831287 -0.0075480963347 -0.0059243245431 -0.0041710360662 -0.0023383515858 -0.00048680521262 0.0013144945568 0.0029908341012 0.0044660194291 
0.0056675192583 0.0065322752805 0.0070125879834 0.0070812700203 0.006735139912 0.0059959867492 0.0049084267135 0.0035345841048 0.0019461573704 
0.00021498232995 -0.0015965321107 -0.0020773037994 -0.0030834804313 -0.0039337107618 -0.0046595872127 -0.0052945803915 -0.0058705221339 -0.0064155466846 
-0.0069530599383 -0.007501391481 -0.0080738606644 -0.0086790609476 -0.0093212326114 -0.01000064471 -0.010713942583 -0.011454443004 -0.01221237764 
-0.012975098323 -0.013727266663 -0.014451055087 -0.015126386728 -0.015731241331 -0.016242054992 -0.016634240539 -0.016882851671 -0.016963405544 
-0.01685285544 -0.016530627306 -0.015979320754 -0.015175107994 -0.014113733518 -0.012797665611 -0.011239932767 -0.0094656046659 -0.0075128789062 
-0.0054335616841 -0.0032926885155 -0.0011670221902 0.00085779906312 0.002691592675 0.0042453969143 0.0054383687528 0.0062051936081 0.0065030571282 
0.0063169829541 0.0056622957357 0.0045832319827 0.0031473252172 0.0014360350744 -0.00046707788879 -0.0024888362582 -0.004137681055 -0.0051368817742 
-0.0059852761198 -0.0067146036109 -0.0073587570849 -0.00795015957 -0.0085176195728 -0.0090852363932 -0.0096720050363 -0.010291846836 -0.010953867458 
-0.011662710329 -0.01241892234 -0.013219282847 -0.014057073626 -0.014922288485 -0.015801796662 -0.016679484095 -0.017536400894 -0.018350944432 
-0.019099109085 -0.019754835361 -0.020290490982 -0.020677514806 -0.020887252554 -0.020892013925 -0.020666403398 -0.020189122055 -0.019429508319 
-0.018374105795 -0.017019328375 -0.015372993851 -0.01345622573 -0.011305083253 -0.0089716533485 -0.0065242865329 -0.0040466262253 -0.0016350904575 
0.00060545833007 0.0025679477316 0.0041510387242 0.0052681832417 0.0058567384237 0.005885660641 0.0053600890436 0.0043212979736 0.0028411578487 
0.0010113292924 -0.0010713764692 -0.003321185125 -0.0063793684782 -0.0073669041867 -0.0082099332939 -0.0089398664726 -0.0095906577952 -0.010195094899 
-0.010782563296 -0.01137786586 -0.012000751777 -0.012665884762 -0.013383054651 -0.014157498212 -0.014990239226 -0.015878391345 -0.016815396597 
-0.017791196582 -0.018792350549 -0.019802124603 -0.020800580908 -0.021764698373 -0.022668559429 -0.023483639636 -0.024179237193 -0.024723079524 
-0.025082144895 -0.02522374203 -0.025116918078 -0.024734391252 -0.024045156404 -0.02302021376 -0.021649019629 -0.019932890891 -0.017887491605 
-0.015545066395 -0.012956250861 -0.010191084888 -0.0073387900112 -0.0045058460769 -0.001811941135 0.00061648395091 0.0026550762336 0.0041923077638 