# vtk DataFile Version 4.1
vtk output
ASCII
DATASET STRUCTURED_GRID
DIMENSIONS 51 51 1
POINTS 2601 float
0 0 0 0.02 0 0 0.04 0 0 
0.06 0 0 0.08 0 0 0.1 0 0 
0.12 0 0 0.14 0 0 0.16 0 0 
0.18 0 0 0.2 0 0 0.22 0 0 
0.24 0 0 0.26 0 0 0.28 0 0 
0.3 0 0 0.32 0 0 0.34 0 0 
0.36 0 0 0.38 0 0 0.4 0 0 
0.42 0 0 0.44 0 0 0.46 0 0 
0.48 0 0 0.5 0 0 0.52 0 0 
0.54 0 0 0.56 0 0 0.58 0 0 
0.6 0 0 0.62 0 0 0.64 0 0 
0.66 0 0 0.68 0 0 0.7 0 0 
0.72 0 0 0.74 0 0 0.76 0 0 
0.78 0 0 0.8 0 0 0.82 0 0 
0.84 0 0 0.86 0 0 0.88 0 0 
0.9 0 0 0.92 0 0 0.94 0 0 
0.96 0 0 0.98 0 0 1 0 0 
0 0.02 0 0.02 0.02 0 0.04 0.02 0 
0.06 0.02 0 0.08 0.02 0 0.1 0.02 0 
0.12 0.02 0 0.14 0.02 0 0.16 0.02 0 
0.18 0.02 0 0.2 0.02 0 0.22 0.02 0 
0.24 0.02 0 0.26 0.02 0 0.28 0.02 0 
0.3 0.02 0 0.32 0.02 0 0.34 0.02 0 
0.36 0.02 0 0.38 0.02 0 0.4 0.02 0 
0.42 0.02 0 0.44 0.02 0 0.46 0.02 0 
0.48 0.02 0 0.5 0.02 0 0.52 0.02 0 
0.54 0.02 0 0.56 0.02 0 0.58 0.02 0 
0.6 0.02 0 0.62 0.02 0 0.64 0.02 0 
0.66 0.02 0 0.68 0.02 0 0.7 0.02 0 
0.72 0.02 0 0.74 0.02 0 0.76 0.02 0 
0.78 0.02 0 0.8 0.02 0 0.82 0.02 0 
0.84 0.02 0 0.86 0.02 0 0.88 0.02 0 
0.9 0.02 0 0.92 0.02 0 0.94 0.02 0 
0.96 0.02 0 0.98 0.02 0 1 0.02 0 
0 0.04 0 0.02 0.04 0 0.04 0.04 0 
0.06 0.04 0 0.08 0.04 0 0.1 0.04 0 
0.12 0.04 0 0.14 0.04 0 0.16 0.04 0 
0.18 0.04 0 0.2 0.04 0 0.22 0.04 0 
0.24 0.04 0 0.26 0.04 0 0.28 0.04 0 
0.3 0.04 0 0.32 0.04 0 0.34 0.04 0 
0.36 0.04 0 0.38 0.04 0 0.4 0.04 0 
0.42 0.04 0 0.44 0.04 0 0.46 0.04 0 
0.48 0.04 0 0.5 0.04 0 0.52 0.04 0 
0.54 0.04 0 0.56 0.04 0 0.58 0.04 0 
0.6 0.04 0 0.62 0.04 0 0.64 0.04 0 
0.66 0.04 0 0.68 0.04 0 0.7 0.04 0 
0.72 0.04 0 0.74 0.04 0 0.76 0.04 0 
0.78 0.04 0 0.8 0.04 0 0.82 0.04 0 
0.84 0.04 0 0.86 0.04 0 0.88 0.04 0 
0.9 0.04 0 0.92 0.04 0 0.94 0.04 0 
0.96 0.04 0 0.98 0.04 0 1 0.04 0 
0 0.06 0 0.02 0.06 0 0.04 0.06 0 
0.06 0.06 0 0.08 0.06 0 0.1 0.06 0 
0.12 0.06 0 0.14 0.06 0 0.16 0.06 0 
0.18 0.06 0 0.2 0.06 0 0.22 0.06 0 
0.24 0.06 0 0.26 0.06 0 0.28 0.06 0 
0.3 0.06 0 0.32 0.06 0 0.34 0.06 0 
0.36 0.06 0 0.38 0.06 0 0.4 0.06 0 
0.42 0.06 0 0.44 0.06 0 0.46 0.06 0 
0.48 0.06 0 0.5 0.06 0 0.52 0.06 0 
0.54 0.06 0 0.56 0.06 0 0.58 0.06 0 
0.6 0.06 0 0.62 0.06 0 0.64 0.06 0 
0.66 0.06 0 0.68 0.06 0 0.7 0.06 0 
0.72 0.06 0 0.74 0.06 0 0.76 0.06 0 
0.78 0.06 0 0.8 0.06 0 0.82 0.06 0 
0.84 0.06 0 0.86 0.06 0 0.88 0.06 0 
0.9 0.06 0 0.92 0.06 0 0.94 0.06 0 
0.96 0.06 0 0.98 0.06 0 1 0.06 0 
0 0.08 0 0.02 0.08 0 0.04 0.08 0 
0.06 0.08 0 0.08 0.08 0 0.1 0.08 0 
0.12 0.08 0 0.14 0.08 0 0.16 0.08 0 
0.18 0.08 0 0.2 0.08 0 0.22 0.08 0 
0.24 0.08 0 0.26 0.08 0 0.28 0.08 0 
0.3 0.08 0 0.32 0.08 0 0.34 0.08 0 
0.36 0.08 0 0.38 0.08 0 0.4 0.08 0 
0.42 0.08 0 0.44 0.08 0 0.46 0.08 0 
0.48 0.08 0 0.5 0.08 0 0.52 0.08 0 
0.54 0.08 0 0.56 0.08 0 0.58 0.08 0 
0.6 0.08 0 0.62 0.08 0 0.64 0.08 0 
0.66 0.08 0 0.68 0.08 0 0.7 0.08 0 
0.72 0.08 0 0.74 0.08 0 0.76 0.08 0 
0.78 0.08 0 0.8 0.08 0 0.82 0.08 0 
0.84 0.08 0 0.86 0.08 0 0.88 0.08 0 
0.9 0.08 0 0.92 0.08 0 0.94 0.08 0 
0.96 0.08 0 0.98 0.08 0 1 0.08 0 
0 0.1 0 0.02 0.1 0 0.04 0.1 0 
0.06 0.1 0 0.08 0.1 0 0.1 0.1 0 
0.12 0.1 0 0.14 0.1 0 0.16 0.1 0 
0.18 0.1 0 0.2 0.1 0 0.22 0.1 0 
0.24 0.1 0 0.26 0.1 0 0.28 0.1 0 
0.3 0.1 0 0.32 0.1 0 0.34 0.1 0 
0.36 0.1 0 0.38 0.1 0 0.4 0.1 0 
0.42 0.1 0 0.44 0.1 0 0.46 0.1 0 
0.48 0.1 0 0.5 0.1 0 0.52 0.1 0 
0.54 0.1 0 0.56 0.1 0 0.58 0.1 0 
0.6 0.1 0 0.62 0.1 0 0.64 0.1 0 
0.66 0.1 0 0.68 0.1 0 0.7 0.1 0 
0.72 0.1 0 0.74 0.1 0 0.76 0.1 0 
0.78 0.1 0 0.8 0.1 0 0.82 0.1 0 
0.84 0.1 0 0.86 0.1 0 0.88 0.1 0 
0.9 0.1 0 0.92 0.1 0 0.94 0.1 0 
0.96 0.1 0 0.98 0.1 0 1 0.1 0 
0 0.12 0 0.02 0.12 0 0.04 0.12 0 
0.06 0.12 0 0.08 0.12 0 0.1 0.12 0 
0.12 0.12 0 0.14 0.12 0 0.16 0.12 0 
0.18 0.12 0 0.2 0.12 0 0.22 0.12 0 
0.24 0.12 0 0.26 0.12 0 0.28 0.12 0 
0.3 0.12 0 0.32 0.12 0 0.34 0.12 0 
0.36 0.12 0 0.38 0.12 0 0.4 0.12 0 
0.42 0.12 0 0.44 0.12 0 0.46 0.12 0 
0.48 0.12 0 0.5 0.12 0 0.52 0.12 0 
0.54 0.12 0 0.56 0.12 0 0.58 0.12 0 
0.6 0.12 0 0.62 0.12 0 0.64 0.12 0 
0.66 0.12 0 0.68 0.12 0 0.7 0.12 0 
0.72 0.12 0 0.74 0.12 0 0.76 0.12 0 
0.78 0.12 0 0.8 0.12 0 0.82 0.12 0 
0.84 0.12 0 0.86 0.12 0 0.88 0.12 0 
0.9 0.12 0 0.92 0.12 0 0.94 0.12 0 
0.96 0.12 0 0.98 0.12 0 1 0.12 0 
0 0.14 0 0.02 0.14 0 0.04 0.14 0 
0.06 0.14 0 0.08 0.14 0 0.1 0.14 0 
0.12 0.14 0 0.14 0.14 0 0.16 0.14 0 
0.18 0.14 0 0.2 0.14 0 0.22 0.14 0 
0.24 0.14 0 0.26 0.14 0 0.28 0.14 0 
0.3 0.14 0 0.32 0.14 0 0.34 0.14 0 
0.36 0.14 0 0.38 0.14 0 0.4 0.14 0 
0.42 0.14 0 0.44 0.14 0 0.46 0.14 0 
0.48 0.14 0 0.5 0.14 0 0.52 0.14 0 
0.54 0.14 0 0.56 0.14 0 0.58 0.14 0 
0.6 0.14 0 0.62 0.14 0 0.64 0.14 0 
0.66 0.14 0 0.68 0.14 0 0.7 0.14 0 
0.72 0.14 0 0.74 0.14 0 0.76 0.14 0 
0.78 0.14 0 0.8 0.14 0 0.82 0.14 0 
0.84 0.14 0 0.86 0.14 0 0.88 0.14 0 
0.9 0.14 0 0.92 0.14 0 0.94 0.14 0 
0.96 0.14 0 0.98 0.14 0 1 0.14 0 
0 0.16 0 0.02 0.16 0 0.04 0.16 0 
0.06 0.16 0 0.08 0.16 0 0.1 0.16 0 
0.12 0.16 0 0.14 0.16 0 0.16 0.16 0 
0.18 0.16 0 0.2 0.16 0 0.22 0.16 0 
0.24 0.16 0 0.26 0.16 0 0.28 0.16 0 
0.3 0.16 0 0.32 0.16 0 0.34 0.16 0 
0.36 0.16 0 0.38 0.16 0 0.4 0.16 0 
0.42 0.16 0 0.44 0.16 0 0.46 0.16 0 
0.48 0.16 0 0.5 0.16 0 0.52 0.16 0 
0.54 0.16 0 0.56 0.16 0 0.58 0.16 0 
0.6 0.16 0 0.62 0.16 0 0.64 0.16 0 
0.66 0.16 0 0.68 0.16 0 0.7 0.16 0 
0.72 0.16 0 0.74 0.16 0 0.76 0.16 0 
0.78 0.16 0 0.8 0.16 0 0.82 0.16 0 
0.84 0.16 0 0.86 0.16 0 0.88 0.16 0 
0.9 0.16 0 0.92 0.16 0 0.94 0.16 0 
0.96 0.16 0 0.98 0.16 0 1 0.16 0 
0 0.18 0 0.02 0.18 0 0.04 0.18 0 
0.06 0.18 0 0.08 0.18 0 0.1 0.18 0 
0.12 0.18 0 0.14 0.18 0 0.16 0.18 0 
0.18 0.18 0 0.2 0.18 0 0.22 0.18 0 
0.24 0.18 0 0.26 0.18 0 0.28 0.18 0 
0.3 0.18 0 0.32 0.18 0 0.34 0.18 0 
0.36 0.18 0 0.38 0.18 0 0.4 0.18 0 
0.42 0.18 0 0.44 0.18 0 0.46 0.18 0 
0.48 0.18 0 0.5 0.18 0 0.52 0.18 0 
0.54 0.18 0 0.56 0.18 0 0.58 0.18 0 
0.6 0.18 0 0.62 0.18 0 0.64 0.18 0 
0.66 0.18 0 0.68 0.18 0 0.7 0.18 0 
0.72 0.18 0 0.74 0.18 0 0.76 0.18 0 
0.78 0.18 0 0.8 0.18 0 0.82 0.18 0 
0.84 0.18 0 0.86 0.18 0 0.88 0.18 0 
0.9 0.18 0 0.92 0.18 0 0.94 0.18 0 
0.96 0.18 0 0.98 0.18 0 1 0.18 0 
0 0.2 0 0.02 0.2 0 0.04 0.2 0 
0.06 0.2 0 0.08 0.2 0 0.1 0.2 0 
0.12 0.2 0 0.14 0.2 0 0.16 0.2 0 
0.18 0.2 0 0.2 0.2 0 0.22 0.2 0 
0.24 0.2 0 0.26 0.2 0 0.28 0.2 0 
0.3 0.2 0 0.32 0.2 0 0.34 0.2 0 
0.36 0.2 0 0.38 0.2 0 0.4 0.2 0 
0.42 0.2 0 0.44 0.2 0 0.46 0.2 0 
0.48 0.2 0 0.5 0.2 0 0.52 0.2 0 
0.54 0.2 0 0.56 0.2 0 0.58 0.2 0 
0.6 0.2 0 0.62 0.2 0 0.64 0.2 0 
0.66 0.2 0 0.68 0.2 0 0.7 0.2 0 
0.72 0.2 0 0.74 0.2 0 0.76 0.2 0 
0.78 0.2 0 0.8 0.2 0 0.82 0.2 0 
0.84 0.2 0 0.86 0.2 0 0.88 0.2 0 
0.9 0.2 0 0.92 0.2 0 0.94 0.2 0 
0.96 0.2 0 0.98 0.2 0 1 0.2 0 
0 0.22 0 0.02 0.22 0 0.04 0.22 0 
0.06 0.22 0 0.08 0.22 0 0.1 0.22 0 
0.12 0.22 0 0.14 0.22 0 0.16 0.22 0 
0.18 0.22 0 0.2 0.22 0 0.22 0.22 0 
0.24 0.22 0 0.26 0.22 0 0.28 0.22 0 
0.3 0.22 0 0.32 0.22 0 0.34 0.22 0 
0.36 0.22 0 0.38 0.22 0 0.4 0.22 0 
0.42 0.22 0 0.44 0.22 0 0.46 0.22 0 
0.48 0.22 0 0.5 0.22 0 0.52 0.22 0 
0.54 0.22 0 0.56 0.22 0 0.58 0.22 0 
0.6 0.22 0 0.62 0.22 0 0.64 0.22 0 
0.66 0.22 0 0.68 0.22 0 0.7 0.22 0 
0.72 0.22 0 0.74 0.22 0 0.76 0.22 0 
0.78 0.22 0 0.8 0.22 0 0.82 0.22 0 
0.84 0.22 0 0.86 0.22 0 0.88 0.22 0 
0.9 0.22 0 0.92 0.22 0 0.94 0.22 0 
0.96 0.22 0 0.98 0.22 0 1 0.22 0 
0 0.24 0 0.02 0.24 0 0.04 0.24 0 
0.06 0.24 0 0.08 0.24 0 0.1 0.24 0 
0.12 0.24 0 0.14 0.24 0 0.16 0.24 0 
0.18 0.24 0 0.2 0.24 0 0.22 0.24 0 
0.24 0.24 0 0.26 0.24 0 0.28 0.24 0 
0.3 0.24 0 0.32 0.24 0 0.34 0.24 0 
0.36 0.24 0 0.38 0.24 0 0.4 0.24 0 
0.42 0.24 0 0.44 0.24 0 0.46 0.24 0 
0.48 0.24 0 0.5 0.24 0 0.52 0.24 0 
0.54 0.24 0 0.56 0.24 0 0.58 0.24 0 
0.6 0.24 0 0.62 0.24 0 0.64 0.24 0 
0.66 0.24 0 0.68 0.24 0 0.7 0.24 0 
0.72 0.24 0 0.74 0.24 0 0.76 0.24 0 
0.78 0.24 0 0.8 0.24 0 0.82 0.24 0 
0.84 0.24 0 0.86 0.24 0 0.88 0.24 0 
0.9 0.24 0 0.92 0.24 0 0.94 0.24 0 
0.96 0.24 0 0.98 0.24 0 1 0.24 0 
0 0.26 0 0.02 0.26 0 0.04 0.26 0 
0.06 0.26 0 0.08 0.26 0 0.1 0.26 0 
0.12 0.26 0 0.14 0.26 0 0.16 0.26 0 
0.18 0.26 0 0.2 0.26 0 0.22 0.26 0 
0.24 0.26 0 0.26 0.26 0 0.28 0.26 0 
0.3 0.26 0 0.32 0.26 0 0.34 0.26 0 
0.36 0.26 0 0.38 0.26 0 0.4 0.26 0 
0.42 0.26 0 0.44 0.26 0 0.46 0.26 0 
0.48 0.26 0 0.5 0.26 0 0.52 0.26 0 
0.54 0.26 0 0.56 0.26 0 0.58 0.26 0 
0.6 0.26 0 0.62 0.26 0 0.64 0.26 0 
0.66 0.26 0 0.68 0.26 0 0.7 0.26 0 
0.72 0.26 0 0.74 0.26 0 0.76 0.26 0 
0.78 0.26 0 0.8 0.26 0 0.82 0.26 0 
0.84 0.26 0 0.86 0.26 0 0.88 0.26 0 
0.9 0.26 0 0.92 0.26 0 0.94 0.26 0 
0.96 0.26 0 0.98 0.26 0 1 0.26 0 
0 0.28 0 0.02 0.28 0 0.04 0.28 0 
0.06 0.28 0 0.08 0.28 0 0.1 0.28 0 
0.12 0.28 0 0.14 0.28 0 0.16 0.28 0 
0.18 0.28 0 0.2 0.28 0 0.22 0.28 0 
0.24 0.28 0 0.26 0.28 0 0.28 0.28 0 
0.3 0.28 0 0.32 0.28 0 0.34 0.28 0 
0.36 0.28 0 0.38 0.28 0 0.4 0.28 0 
0.42 0.28 0 0.44 0.28 0 0.46 0.28 0 
0.48 0.28 0 0.5 0.28 0 0.52 0.28 0 
0.54 0.28 0 0.56 0.28 0 0.58 0.28 0 
0.6 0.28 0 0.62 0.28 0 0.64 0.28 0 
0.66 0.28 0 0.68 0.28 0 0.7 0.28 0 
0.72 0.28 0 0.74 0.28 0 0.76 0.28 0 
0.78 0.28 0 0.8 0.28 0 0.82 0.28 0 
0.84 0.28 0 0.86 0.28 0 0.88 0.28 0 
0.9 0.28 0 0.92 0.28 0 0.94 0.28 0 
0.96 0.28 0 0.98 0.28 0 1 0.28 0 
0 0.3 0 0.02 0.3 0 0.04 0.3 0 
0.06 0.3 0 0.08 0.3 0 0.1 0.3 0 
0.12 0.3 0 0.14 0.3 0 0.16 0.3 0 
0.18 0.3 0 0.2 0.3 0 0.22 0.3 0 
0.24 0.3 0 0.26 0.3 0 0.28 0.3 0 
0.3 0.3 0 0.32 0.3 0 0.34 0.3 0 
0.36 0.3 0 0.38 0.3 0 0.4 0.3 0 
0.42 0.3 0 0.44 0.3 0 0.46 0.3 0 
0.48 0.3 0 0.5 0.3 0 0.52 0.3 0 
0.54 0.3 0 0.56 0.3 0 0.58 0.3 0 
0.6 0.3 0 0.62 0.3 0 0.64 0.3 0 
0.66 0.3 0 0.68 0.3 0 0.7 0.3 0 
0.72 0.3 0 0.74 0.3 0 0.76 0.3 0 
0.78 0.3 0 0.8 0.3 0 0.82 0.3 0 
0.84 0.3 0 0.86 0.3 0 0.88 0.3 0 
0.9 0.3 0 0.92 0.3 0 0.94 0.3 0 
0.96 0.3 0 0.98 0.3 0 1 0.3 0 
0 0.32 0 0.02 0.32 0 0.04 0.32 0 
0.06 0.32 0 0.08 0.32 0 0.1 0.32 0 
0.12 0.32 0 0.14 0.32 0 0.16 0.32 0 
0.18 0.32 0 0.2 0.32 0 0.22 0.32 0 
0.24 0.32 0 0.26 0.32 0 0.28 0.32 0 
0.3 0.32 0 0.32 0.32 0 0.34 0.32 0 
0.36 0.32 0 0.38 0.32 0 0.4 0.32 0 
0.42 0.32 0 0.44 0.32 0 0.46 0.32 0 
0.48 0.32 0 0.5 0.32 0 0.52 0.32 0 
0.54 0.32 0 0.56 0.32 0 0.58 0.32 0 
[...]
CELL_DATA 2500
FIELD FieldData 1
pressure 1 2500 double
0.0021172109831 0.0020595385831 0.0019108830046 0.0017057458454 0.0014769681015 0.0012504530749 0.0010451347949 0.00087425940119 0.00074675959916 
0.00066841463039 0.00064275682163 0.00067175279387 0.00075629730139 0.00089655436762 0.0010921745971 0.0013424131444 0.0016461691438 0.0020019648841 
0.0024078809437 0.002861461866 0.0033596058356 0.0038984505963 0.0044732664877 0.0050783657691 0.0057070343418 0.0063514866335 0.007002681198 
0.007650740702 0.0082853153867 0.0088956095268 0.0094706472296 0.0099996082484 0.010472215122 0.010879152921 0.011212501031 0.011466154126 
0.011636208762 0.011721293958 0.011722827198 0.011645183881 0.011495777331 0.011285057534 0.011026445943 0.010736232141 0.010433465432 
0.010139833033 0.0098793703556 0.0096775540722 0.0095581907029 0.0095339945364 0.0021757037134 0.0021175220264 0.0019921240319 0.0018245929817 
0.00163849433 0.0014537700167 0.0012860797295 0.0011471015351 0.0010451929357 0.00098610360378 0.00097361293403 0.0010100513427 0.001096700997 
0.0012340852985 0.0014221614922 0.0016604316409 0.0019479871446 0.002283500895 0.0026651804431 0.0030906947415 0.0035570861641 0.0040606786273 
0.0045969921488 0.0051606734034 0.0057454516026 0.0063441316625 0.0069482262083 0.0075486034099 0.0081358295243 0.0087000950849 0.0092314785877 
0.0097202588038 0.010157267323 0.010534266871 0.010844337177 0.01108224757 0.011244795586 0.011331091651 0.011342772624 0.011284133 
0.011162169383 0.010986541207 0.010769452789 0.010525471913 0.010271289089 0.010025372468 0.0098074097314 0.0096372887292 0.0095333222228 
0.0095100087138 0.0023260031995 0.002242488027 0.0021153615963 0.0019617685786 0.0017982199738 0.0016393735465 0.0014973434906 0.0013816074625 
0.0012992578876 0.0012553932913 0.00125352809 0.0012959598946 0.0013840688171 0.0015185422335 0.0016995281925 0.0019267252183 0.0021994179878 
0.0025164695103 0.0028762801871 0.0032767240847 0.0037150723178 0.0041879134859 0.0046910805182 0.0052195933512 0.0057676275924 0.0063285214798 
0.0068942184252 0.0074561805888 0.0080056763983 0.0085336314981 0.0090308829489 0.0094884755739 0.0098979931674 0.01025191175 0.010543957624 
0.010769450504 0.010925612013 0.011011819089 0.011029785487 0.010983659128 0.010880029315 0.010727841797 0.010538222106 0.010324223575 
0.010100491323 0.0098828170737 0.0096875510422 0.0095308309806 0.0094277432524 0.009392059916 0.0025360890533 0.0024109265611 0.0022649423099 
0.0021084995069 0.0019523831789 0.0018066945333 0.00168015614 0.0015798566375 0.0015112848913 0.0014785169714 0.0014844593125 0.0015310893968 
0.0016196625812 0.001750871549 0.0019249550484 0.0021417582183 0.0024007505664 0.0027010085576 0.0030411709258 0.0034193747788 0.0038331815202 
0.0042795005038 0.0047545192442 0.0052536491546 0.0057714961324 0.0063018660794 0.0068370606035 0.007368985912 0.0078894181541 0.0083897910269 
0.0088614393373 0.0092958848515 0.0096851562669 0.010022130424 0.010300877302 0.010516989404 0.010667874833 0.010752992371 0.010774010955 
0.010734879525 0.010641799815 0.01050309598 0.010328984696 0.010131264937 0.0099229157856 0.0097176073804 0.0095291323798 0.0093707825823 
0.0092547769107 0.0091919769092 0.0027747262828 0.0025999300022 0.002424565168 0.0022539425259 0.0020943358819 0.0019520376633 0.0018327235857 
0.0017411556473 0.0016811171359 0.0016554834303 0.0016663554172 0.0017152064357 0.0018030138741 0.0019303602741 0.0020974979829 0.0023043776019 
0.0025506429208 0.0028355978221 0.0031581504561 0.0035167425506 0.0039092697771 0.0043330012507 0.004784505753 0.0052595926897 0.0057532763856 
0.0062597722214 0.0067716900834 0.00728122464 0.0077804925302 0.0082612369103 0.0087150629059 0.0091337181995 0.0095094099559 0.0098351444813 
0.010105071433 0.010314812643 0.010461752485 0.010545266683 0.010566869899 0.010530266298 0.0104412939 0.010307753972 0.010139137527 
0.0099462664975 0.0097408430066 0.0095349344116 0.0093404141952 0.0091683858924 0.0090286264319 0.0089290460719 0.00301621363 0.0027889972397 
0.0025784875488 0.0023864876492 0.0022158283518 0.0020696968573 0.0019511307947 0.0018627543249 0.0018066871834 0.0017845600336 0.0017975826585 
0.0018466273593 0.0019323037097 0.0020550114311 0.0022149659838 0.0024121953298 0.0026465105675 0.0029174529094 0.0032242231513 0.0035655978648 
0.0039398391974 0.0043446041406 0.0047768605432 0.0052328174306 0.005707877279 0.0061966180552 0.0066919261908 0.0071861247771 0.0076715295931 
0.0081400224041 0.0085832812761 0.0089930606031 0.009361511752 0.0096815298023 0.0099471074297 0.010153674556 0.010298397716 0.010380414373 
0.010400979374 0.010363506103 0.010273490562 0.01013830906 0.0099669111605 0.0097694194964 0.0095566415478 0.0093395339213 0.0091286423069 
0.0089335379626 0.0087622511752 0.0086206408146 0.003240116603 0.0029604726299 0.0027121390331 0.0024945079113 0.0023077968671 0.0021526815597 
0.0020299548433 0.0019403372542 0.0018844026367 0.0018625765849 0.0018751707923 0.0019224260969 0.0020045465957 0.0021217150623 0.0022740849819 
0.0024617491721 0.0026846854633 0.0029426835396 0.0032352560709 0.0035615392807 0.0039201874567 0.0043092679138 0.0047261622877 0.0051674813895 
0.0056290016449 0.0061056299843 0.0065905215845 0.0070759638731 0.0075543542853 0.0080175679223 0.0084571847268 0.0088647725021 0.0092322166311 
0.0095520811545 0.0098179815825 0.010024945688 0.010169733392 0.010251088495 0.010269895894 0.01022922472 0.010134242207 0.0099919904247 
0.0098110549001 0.0096011293671 0.0093724974895 0.0091354782968 0.008899861958 0.0086743560114 0.0084660362298 0.0082797480718 0.003430002583 
0.0030992534703 0.0028122821938 0.002566757567 0.0023608667244 0.0021932305409 0.0020627325539 0.001968420014 0.0019094675054 0.0018851802481 
0.0018950140397 0.0019385941173 0.0020157210433 0.0021263573167 0.0022705924394 0.0024485859947 0.0026604909722 0.0029063600606 0.0031860378164 
0.003499043134 0.0038444467835 0.0042207481886 0.0046257586879 0.0050564986268 0.0055091138507 0.0059788215777 0.0064590732157 0.0069419504866 
0.0074198385205 0.0078844844212 0.008327221757 0.0087392589769 0.0091120223315 0.0094375373956 0.0097088290229 0.0099203131204 0.010068148887 
0.010150520734 0.010167819681 0.010122701673 0.010020003136 0.0098665090873 0.0096706056689 0.0094418156784 0.0091902545489 0.0089260562799 
0.0086588018591 0.0083969745482 0.0081474418887 0.0079149283 0.0035722579203 0.0031922735527 0.0028669180163 0.0025925312527 0.0023656481505 
0.0021831611439 0.0020423074967 0.0019406623577 0.0018761478449 0.0018470512041 0.0018520410909 0.0018901717683 0.0019608691789 0.0020638955815 
0.002199292167 0.0023673006365 0.0025682665292 0.0028025254706 0.003070276928 0.0033714484866 0.0037055533612 0.0040715483478 0.0044676976895 
0.0048914466099 0.0053393182663 0.0058068381996 0.0062878368829 0.0067740059122 0.0072576497829 0.0077302899266 0.0081828862113 0.008606131848 
0.0089908122259 0.0093282119373 0.0096105493925 0.0098314095092 0.0099861408272 0.010072181787 0.010089281663 0.010039589438 0.0099275852018 
0.0097598532392 0.0095447262809 0.0092917969211 0.0090113486321 0.0087137573515 0.0084089039641 0.0081056286246 0.0078112351841 0.0075310241925 
0.003655196734 0.0032280014816 0.0028650927091 0.0025616865468 0.0023128937718 0.00211409701 0.0019610808261 0.0018501109078 0.0017779882092 
0.0017420850817 0.0017403618434 0.0017713615061 0.0018341806642 0.0019284164716 0.0020540907455 0.0022115535947 0.0024013680554 0.0026241791932 
0.0028805702007 0.0031709069388 0.0034951776574 0.0038528305616 0.0042426124434 0.0046624233264 0.0051091872828 0.0055787536084 0.0060654819359 
0.0065604781519 0.0070559269002 0.0075430505203 0.0080123277093 0.0084537949945 0.0088574226891 0.0092135511904 0.0095133669087 0.0097493860218 
0.0099159099459 0.010009412144 0.010028816536 0.0099756351786 0.009853932579 0.0096701188373 0.0094325937209 0.0091512380711 0.0088368168782 
0.0085003465348 0.0081524753682 0.007802916342 0.007459948862 0.0071299791057 0.0036684377026 0.0031960324714 0.0027966935378 0.0024646026921 
0.0021935721895 0.0019776123373 0.0018111898609 0.0016893850117 0.0016079872572 0.0015635477171 0.0015533968353 0.0015756309222 0.0016290700523 
0.0017131901214 0.0018280311232 0.0019740847931 0.0021521640391 0.0023632562438 0.0026083618774 0.0028883235281 0.0032036455665 0.0035543088959 
0.0039395902304 0.0043578877203 0.0048065677259 0.005281842063 0.0057788110032 0.006287816096 0.006800911551 0.0073089716674 0.0078019071735 
0.0082689711095 0.0086991505615 0.0090816340845 0.0094063345872 0.0096644345126 0.0098489143726 0.0099550187055 0.009980613175 0.0099263929929 
0.0097959010813 0.0095953586584 0.0093333187075 0.0090201407724 0.0086673597255 0.0082870033494 0.0078909175996 0.007490148059 0.0070944044779 
0.0067116082538 0.0036024845206 0.0030867845177 0.0026522732288 0.0022921198221 0.0019988972441 0.0017653233975 0.0015846361064 0.0014508207211 
0.0013587418703 0.0013042094327 0.0012839954434 0.0012958119331 0.0013382567588 0.0014107312864 0.0015133349446 0.0016467394964 0.0018120447199 
0.002010617758 0.0022439184946 0.0025133113389 0.0028198673892 0.0031641585224 0.0035460511537 0.0039645055744 0.0044173908305 0.0049013348187 
0.0054124680709 0.0059402281938 0.0064765593542 0.0070119633047 0.00753571971 0.0080361892499 0.0085012153393 0.0089186216293 0.0092767860442 
0.0095652577025 0.0097753744926 0.0099008295387 0.0099381322122 0.0098869140574 0.0097500270327 0.0095334328005 0.0092458781298 0.0088983567142 
0.0085034347512 0.0080744986509 0.0076249949107 0.0071677232752 0.0067142231308 0.0062742659857 0.0034484535823 0.0028912867754 0.0024229164355 
0.0020354832654 0.0017203391026 0.0014689504809 0.0012733818332 0.0011265866188 0.0010225704407 0.00095646660142 0.0009245497771 0.00092420409624 
0.0009538554317 0.0010128761 0.0011014668831 0.0012205188823 0.0013714585299 0.0015560753219 0.0017763351657 0.0020341793635 0.0023313081746 
0.0026689564515 0.003047662498 0.0034670349539 0.0039255307039 0.004420254022 0.0049486637683 0.0054993551326 0.0060641622642 0.0066332081286 
0.0071951101105 0.0077372540038 0.008246192507 0.0087081683337 0.0091097417761 0.0094384889935 0.0096837255817 0.0098371978049 0.0098936775636 
0.0098513987632 0.0097122688038 0.009481843952 0.0091690442897 0.0087856083679 0.0083453656444 0.0078633899311 0.0073551172986 0.006835506541 
0.0063183005315 0.0058154192154 0.0031979077427 0.0026010434635 0.0021001499274 0.0016863047391 0.0013496333074 0.0010803673288 0.00086942976987 
0.00070878433744 0.00059162525092 0.00051245909467 0.00046711267861 0.00045268876463 0.0004674849816 0.00051088545837 0.00058323045072 0.00068566899859 
0.00081999374611 0.00098846136648 0.001193596702 0.0014379792838 0.0017240135242 0.0020536873264 0.0024283141897 0.0028482736006 0.0033127360281 
0.0038193616121 0.0043668945859 0.0049439898517 0.0055420249321 0.0061507729714 0.0067582167257 0.007350727365 0.0079134438949 0.0084308157832 
0.0088872842138 0.0092680698939 0.0095600200591 0.0097524514475 0.0098379144638 0.009812800408 0.0096777084588 0.009437543604 0.0091012968579 
0.0086815034454 0.0081934532119 0.0076542222254 0.0070816254687 0.0064931917296 0.0059052448808 0.0053321474428 0.0028427678557 0.0022079581379 
0.0016758927005 0.0012365450543 0.00087879743516 0.00059164893613 0.00036489760501 0.00018954382967 5.8003387068e-05 -3.5807635113e-05 -9.647370894e-05 
-0.00012713735242 -0.00012959454469 -0.00010441692816 -5.1091876763e-05 3.1820662598e-05 0.00014651773862 0.00029576826752 0.00048271057315 0.00071063089869 
0.00098272507474 0.0013018368664 0.0016701867485 0.0020890796125 0.0025586295244 0.0030775172874 0.0036434650452 0.0042499336998 0.0048852638441 
0.0055393153968 0.0061995898353 0.0068514664974 0.0074785844878 0.0080634016718 0.0085879268312 0.0090346019125 0.0093872884821 0.0096322909695 
0.0097593305966 0.0097623727412 0.0096402032513 0.0093966981197 0.0090407067544 0.0085855332562 0.0080480799435 0.0074477278059 0.0068050736449 
0.0061406557634 0.0054737882001 0.0048215941936 0.0023752827336 0.0017043054869 0.0011424407585 0.00067851905792 0.00030015982247 -4.8750025847e-06 
-0.00024790522988 -0.00043887830009 -0.00058613607862 -0.00069632966681 -0.00077443031765 -0.00082380154637 -0.00084631039711 -0.00084246107848 -0.00081154568772 
-0.00075180641112 -0.0006606091718 -0.00053463162751 -0.00037006631143 -0.0001628463063 9.110699094e-05 0.00039561555987 0.00075394220784 0.0011684825144 
0.0016404446053 0.0021695540376 0.0027538109555 0.0033904411998 0.004065823114 0.0047699411144 0.0054899401461 0.006210272337 0.006913036702 
0.007578530653 0.0081860192427 0.0087147094552 0.0091448883431 0.009459155298 0.00964365101 0.0096891638829 0.0095919833808 0.0093544074823 
0.0089847838733 0.0084970480531 0.0079098037383 0.007245023519 0.0065265128954 0.0057783092853 0.0050231851398 0.004281393468 0.0017880434322 
0.0010827405076 0.0004924805765 4.9209332531e-06 -0.00039359823265 -0.00071655780936 -0.00097639321247 -0.0011839921089 -0.0013484435378 -0.0014769537149 
-0.001574868631 -0.0016457624155 -0.0016915623606 -0.0017126956179 -0.0017082470126 -0.0016761249411 -0.0016132354457 -0.0015156656372 -0.0013788874726 
-0.0011979807395 -0.00096788020679 -0.00068366239037 -0.00034085845042 6.420039515e-05 0.00053401554669 0.0010695420551 0.0016698190231 0.0023358321082 
0.0030524850429 0.0038102252861 0.0045960796119 0.0053937238537 0.0061837513873 0.0069441848307 0.007651258034 0.0082804707397 0.0088078837749 
0.009211586139 0.0094732268798 0.0095794687937 0.0095232025743 0.0093043794772 0.0089302889449 0.0084152087516 0.0077794408127 0.0070478081577 
0.0062477812532 0.0054074560475 0.0045536179423 0.003710096066 0.0010740313492 0.00033633596557 -0.00028087505694 -0.00079113407527 -0.0012093880521 
-0.0015503635158 -0.0018276109735 -0.0020529565603 -0.0022362343401 -0.0023852049079 -0.0025055904908 -0.0026011783653 -0.0026739610326 -0.002724292962 
-0.0027510549408 -0.0027518197232 -0.0027230202969 -0.0026601297555 -0.0025578540902 -0.0024103467268 -0.0022114578049 -0.0019550207276 -0.0016351831869 
-0.0012467819942 -0.00078576555003 -0.00024966464958 0.00036189610211 0.001054223391 0.0018113276461 0.0026245616284 0.0034811657024 0.0043642992865 
0.0052531909996 0.0061235628251 0.0069483869255 0.0076989960797 0.0083465300315 0.0088636559439 0.0092264505739 0.0094162776512 0.0094214639225 
0.0092385700831 0.0088730138403 0.0083389175984 0.0076581421785 0.0068585675242 0.0059718123776 0.0050306765539 0.00406662671 0.0031076197513 
0.00022669069123 -0.00054136023487 -0.0011840361337 -0.0017160560045 -0.0021536498351 -0.0025127864544 -0.00280813072 -0.0030524493212 -0.0032563280057 
-0.0034280924702 -0.0035738557961 -0.0036976371461 -0.0038015149378 -0.0038857937687 -0.003949170476 -0.0039888955825 -0.0040009358493 -0.0039801387252 
-0.0039204100906 -0.0038149170883 -0.00365632367 -0.0034370791364 -0.0031497521572 -0.0027874308986 -0.0023441995796 -0.0018156732139 -0.0011996290165 
-0.00048762823149 0.00030652065404 0.0011749055325 0.002105347258 0.0030808902702 0.0040796875072 0.0050752661039 0.006037206257 0.0069322668942 
0.0077259617378 0.0083845396443 0.0088772585134 0.009178766366 0.009271356168 0.00914681697 0.008807550191 0.0082667422329 0.0075474749134 
0.0066807986485 0.0057029766114 0.0046522545405 0.0035655888358 0.002475750412 -0.00075998336101 -0.0015562565926 -0.00222287609 -0.002775721426 
-0.0032322851244 -0.0036097668062 -0.0039239427702 -0.0041885271805 -0.0044148724841 -0.0046118925722 -0.0047861213349 -0.0049418452842 -0.0050812693583 
-0.0052046895986 -0.0053106585506 -0.0053961415213 -0.005456663669 -0.0054864539032 -0.0054786044897 -0.0054252458062 -0.0053177704752 -0.0051471018651 
-0.0049040272707 -0.0045796242719 -0.0041657500134 -0.0036556357241 -0.0030445891949 -0.0023238614393 -0.0014984896707 -0.00057798955858 0.00042691450169 
0.0014998199779 0.0026182968326 0.0037539614809 0.0048730219047 0.0059373623902 0.0069062072233 0.0077383463128 0.0083948272507 0.0088419170428 
0.0090540655683 0.0090165091718 0.0087270732996 0.0081968519132 0.0074495253163 0.0065192715292 0.0054474758219 0.004278669659 0.0030562728094 
0.0018187228971 -0.0018913506058 -0.002713646853 -0.0034026741961 -0.0039754174016 -0.0044505922346 -0.0048466070438 -0.0051803454696 -0.0054664804707 
-0.0057171567385 -0.0059419134216 -0.0061477525326 -0.0063392834725 -0.0065188982662 -0.0066869481002 -0.0068419062036 -0.0069805116633 -0.0070978949297 
-0.0071877017167 -0.0072422150034 -0.0072525053034 -0.0072086208334 -0.007099830929 -0.0069149611786 -0.0066428023636 -0.0062726337475 -0.0057948087359 
-0.0052013315776 -0.0044859603905 -0.0036387122486 -0.0026726724832 -0.0015959517176 -0.00042353201248 0.00082226832408 0.0021116506817 0.0034076763388 
0.0046672274682 0.0058426853783 0.0068843575138 0.0077435901742 0.008376374166 0.0087471500834 0.0088323630853 0.008623196071 0.0081270059937 
0.0073670525365 0.0063803507037 0.0052138125994 0.0039191801152 0.0025474945089 0.0011439125071 -0.0031720351281 -0.0040181480981 -0.0047280684645 
-0.0053197977529 -0.0058132129908 -0.0062278987521 -0.0065818405337 -0.0068906886169 -0.0071674179248 -0.0074222479124 -0.0076627161658 -0.0078938323563 
-0.0081182603681 -0.0083364964237 -0.0085470230936 -0.0087464374416 -0.008929555074 -0.0090894951409 -0.0092177691868 -0.009304386481 -0.0093380055286 
-0.0093061484164 -0.0091954975916 -0.0089923239619 -0.0086830172406 -0.0082547816651 -0.0076964739642 -0.0069997440348 -0.0061451950561 -0.0051446634233 
-0.0040028591824 -0.0027324565486 -0.0013547903233 9.9665011431e-05 0.0015913112044 0.0030721466415 0.0044873522353 0.0057778367264 0.0068837327251 
0.0077486796347 0.008324594101 0.0085763935279 0.0084859550921 0.008054639468 0.0073037288568 0.0062724107305 0.0050133689648 0.00358653017 
0.0020519112218 0.00046267352378 -0.0046058510462 -0.0054736581205 -0.0062030317965 -0.0068128626142 -0.0073241023353 -0.0077574680815 -0.0081320431568 
-0.0084644837729 -0.008768651781 -0.0090555227235 -0.009333261964 -0.0096073830131 -0.009880934229 -0.010154671172 -0.010427203672 -0.010695103216 
-0.010952973356 -0.011193499454 -0.011407485493 -0.011583915978 -0.011710050792 -0.011771583328 -0.011752924441 -0.011637584108 -0.011408738962 
-0.011049973042 -0.010546263877 -0.0098852798501 -0.0090431138394 -0.0080238641363 -0.0068283472572 -0.0054659663734 -0.0039559833825 -0.002328525509 
-0.00062504029818 0.0011020385084 0.0027906362385 0.0043715683126 0.0057723304117 0.0069220447558 0.007757288729 0.0082282062133 0.0083040319678 
0.0079771222269 0.0072645200664 0.0062063818606 0.0048611218108 0.0032978099563 0.0015869838588 -0.00020863960558 -0.0061957566488 -0.0070833473179 
-0.0078308845769 -0.0084579752977 -0.0089865318559 -0.00943835158 -0.0098336161667 -0.010190035054 -0.0105224352 -0.010842653884 -0.011159606245 
-0.011479445119 -0.01180574259 -0.012139661529 -0.012480085873 -0.012823703733 -0.01316504402 -0.013496477248 -0.013808205237 -0.014088255959 
-0.01432250937 -0.014494811845 -0.01458718633 -0.014580189962 -0.014453461393 -0.014186478298 -0.013759579692 -0.013155264239 -0.012349306278 
-0.011331436188 -0.010098452734 -0.0086552050086 -0.0070174848154 -0.005213711007 -0.003285988662 -0.0012903205401 0.00070431664988 0.0026183052928 
0.0043653166941 0.0058578375769 0.0070140924854 0.007765735335 0.0080653042168 0.007892265309 0.0072562659951 0.0061964802761 0.0047765472568 
0.0030755160929 0.0011761528021 -0.0008474273809 -0.0079438527513 -0.0088497003859 -0.0096143598909 -0.010257929595 -0.010803142181 -0.011272814751 
-0.011688243508 -0.012068259866 -0.012428771824 -0.01278261983 -0.013139630552 -0.013506764458 -0.013888295658 -0.014285971056 -0.014699125464 
-0.015124735772 -0.015557419387 -0.015989388437 -0.016410373603 -0.016807547908 -0.017165485019 -0.01746619582 -0.01768925868 -0.017812137401 