# vtk DataFile Version 4.1
vtk output
ASCII
DATASET STRUCTURED_GRID
DIMENSIONS 51 51 1
POINTS 2601 float
0 0 0 0.02 0 0 0.04 0 0 
0.06 0 0 0.08 0 0 0.1 0 0 
0.12 0 0 0.14 0 0 0.16 0 0 
0.18 0 0 0.2 0 0 0.22 0 0 
0.24 0 0 0.26 0 0 0.28 0 0 
0.3 0 0 0.32 0 0 0.34 0 0 
0.36 0 0 0.38 0 0 0.4 0 0 
0.42 0 0 0.44 0 0 0.46 0 0 
0.48 0 0 0.5 0 0 0.52 0 0 
0.54 0 0 0.56 0 0 0.58 0 0 
0.6 0 0 0.62 0 0 0.64 0 0 
0.66 0 0 0.68 0 0 0.7 0 0 
0.72 0 0 0.74 0 0 0.76 0 0 
0.78 0 0 0.8 0 0 0.82 0 0 
0.84 0 0 0.86 0 0 0.88 0 0 
0.9 0 0 0.92 0 0 0.94 0 0 
0.96 0 0 0.98 0 0 1 0 0 
0 0.02 0 0.02 0.02 0 0.04 0.02 0 
0.06 0.02 0 0.08 0.02 0 0.1 0.02 0 
0.12 0.02 0 0.14 0.02 0 0.16 0.02 0 
0.18 0.02 0 0.2 0.02 0 0.22 0.02 0 
0.24 0.02 0 0.26 0.02 0 0.28 0.02 0 
0.3 0.02 0 0.32 0.02 0 0.34 0.02 0 
0.36 0.02 0 0.38 0.02 0 0.4 0.02 0 
0.42 0.02 0 0.44 0.02 0 0.46 0.02 0 
0.48 0.02 0 0.5 0.02 0 0.52 0.02 0 
0.54 0.02 0 0.56 0.02 0 0.58 0.02 0 
0.6 0.02 0 0.62 0.02 0 0.64 0.02 0 
0.66 0.02 0 0.68 0.02 0 0.7 0.02 0 
0.72 0.02 0 0.74 0.02 0 0.76 0.02 0 
0.78 0.02 0 0.8 0.02 0 0.82 0.02 0 
0.84 0.02 0 0.86 0.02 0 0.88 0.02 0 
0.9 0.02 0 0.92 0.02 0 0.94 0.02 0 
0.96 0.02 0 0.98 0.02 0 1 0.02 0 
0 0.04 0 0.02 0.04 0 0.04 0.04 0 
0.06 0.04 0 0.08 0.04 0 0.1 0.04 0 
0.12 0.04 0 0.14 0.04 0 0.16 0.04 0 
0.18 0.04 0 0.2 0.04 0 0.22 0.04 0 
0.24 0.04 0 0.26 0.04 0 0.28 0.04 0 
0.3 0.04 0 0.32 0.04 0 0.34 0.04 0 
0.36 0.04 0 0.38 0.04 0 0.4 0.04 0 
0.42 0.04 0 0.44 0.04 0 0.46 0.04 0 
0.48 0.04 0 0.5 0.04 0 0.52 0.04 0 
0.54 0.04 0 0.56 0.04 0 0.58 0.04 0 
0.6 0.04 0 0.62 0.04 0 0.64 0.04 0 
0.66 0.04 0 0.68 0.04 0 0.7 0.04 0 
0.72 0.04 0 0.74 0.04 0 0.76 0.04 0 
0.78 0.04 0 0.8 0.04 0 0.82 0.04 0 
0.84 0.04 0 0.86 0.04 0 0.88 0.04 0 
0.9 0.04 0 0.92 0.04 0 0.94 0.04 0 
0.96 0.04 0 0.98 0.04 0 1 0.04 0 
0 0.06 0 0.02 0.06 0 0.04 0.06 0 
0.06 0.06 0 0.08 0.06 0 0.1 0.06 0 
0.12 0.06 0 0.14 0.06 0 0.16 0.06 0 
0.18 0.06 0 0.2 0.06 0 0.22 0.06 0 
0.24 0.06 0 0.26 0.06 0 0.28 0.06 0 
0.3 0.06 0 0.32 0.06 0 0.34 0.06 0 
0.36 0.06 0 0.38 0.06 0 0.4 0.06 0 
0.42 0.06 0 0.44 0.06 0 0.46 0.06 0 
0.48 0.06 0 0.5 0.06 0 0.52 0.06 0 
0.54 0.06 0 0.56 0.06 0 0.58 0.06 0 
0.6 0.06 0 0.62 0.06 0 0.64 0.06 0 
0.66 0.06 0 0.68 0.06 0 0.7 0.06 0 
0.72 0.06 0 0.74 0.06 0 0.76 0.06 0 
0.78 0.06 0 0.8 0.06 0 0.82 0.06 0 
0.84 0.06 0 0.86 0.06 0 0.88 0.06 0 
0.9 0.06 0 0.92 0.06 0 0.94 0.06 0 
0.96 0.06 0 0.98 0.06 0 1 0.06 0 
0 0.08 0 0.02 0.08 0 0.04 0.08 0 
0.06 0.08 0 0.08 0.08 0 0.1 0.08 0 
0.12 0.08 0 0.14 0.08 0 0.16 0.08 0 
0.18 0.08 0 0.2 0.08 0 0.22 0.08 0 
0.24 0.08 0 0.26 0.08 0 0.28 0.08 0 
0.3 0.08 0 0.32 0.08 0 0.34 0.08 0 
0.36 0.08 0 0.38 0.08 0 0.4 0.08 0 
0.42 0.08 0 0.44 0.08 0 0.46 0.08 0 
0.48 0.08 0 0.5 0.08 0 0.52 0.08 0 
0.54 0.08 0 0.56 0.08 0 0.58 0.08 0 
0.6 0.08 0 0.62 0.08 0 0.64 0.08 0 
0.66 0.08 0 0.68 0.08 0 0.7 0.08 0 
0.72 0.08 0 0.74 0.08 0 0.76 0.08 0 
0.78 0.08 0 0.8 0.08 0 0.82 0.08 0 
0.84 0.08 0 0.86 0.08 0 0.88 0.08 0 
0.9 0.08 0 0.92 0.08 0 0.94 0.08 0 
0.96 0.08 0 0.98 0.08 0 1 0.08 0 
0 0.1 0 0.02 0.1 0 0.04 0.1 0 
0.06 0.1 0 0.08 0.1 0 0.1 0.1 0 
0.12 0.1 0 0.14 0.1 0 0.16 0.1 0 
0.18 0.1 0 0.2 0.1 0 0.22 0.1 0 
0.24 0.1 0 0.26 0.1 0 0.28 0.1 0 
0.3 0.1 0 0.32 0.1 0 0.34 0.1 0 
0.36 0.1 0 0.38 0.1 0 0.4 0.1 0 
0.42 0.1 0 0.44 0.1 0 0.46 0.1 0 
0.48 0.1 0 0.5 0.1 0 0.52 0.1 0 
0.54 0.1 0 0.56 0.1 0 0.58 0.1 0 
0.6 0.1 0 0.62 0.1 0 0.64 0.1 0 
0.66 0.1 0 0.68 0.1 0 0.7 0.1 0 
0.72 0.1 0 0.74 0.1 0 0.76 0.1 0 
0.78 0.1 0 0.8 0.1 0 0.82 0.1 0 
0.84 0.1 0 0.86 0.1 0 0.88 0.1 0 
0.9 0.1 0 0.92 0.1 0 0.94 0.1 0 
0.96 0.1 0 0.98 0.1 0 1 0.1 0 
0 0.12 0 0.02 0.12 0 0.04 0.12 0 
0.06 0.12 0 0.08 0.12 0 0.1 0.12 0 
0.12 0.12 0 0.14 0.12 0 0.16 0.12 0 
0.18 0.12 0 0.2 0.12 0 0.22 0.12 0 
0.24 0.12 0 0.26 0.12 0 0.28 0.12 0 
0.3 0.12 0 0.32 0.12 0 0.34 0.12 0 
0.36 0.12 0 0.38 0.12 0 0.4 0.12 0 
0.42 0.12 0 0.44 0.12 0 0.46 0.12 0 
0.48 0.12 0 0.5 0.12 0 0.52 0.12 0 
0.54 0.12 0 0.56 0.12 0 0.58 0.12 0 
0.6 0.12 0 0.62 0.12 0 0.64 0.12 0 
0.66 0.12 0 0.68 0.12 0 0.7 0.12 0 
0.72 0.12 0 0.74 0.12 0 0.76 0.12 0 
0.78 0.12 0 0.8 0.12 0 0.82 0.12 0 
0.84 0.12 0 0.86 0.12 0 0.88 0.12 0 
0.9 0.12 0 0.92 0.12 0 0.94 0.12 0 
0.96 0.12 0 0.98 0.12 0 1 0.12 0 
0 0.14 0 0.02 0.14 0 0.04 0.14 0 
0.06 0.14 0 0.08 0.14 0 0.1 0.14 0 
0.12 0.14 0 0.14 0.14 0 0.16 0.14 0 
0.18 0.14 0 0.2 0.14 0 0.22 0.14 0 
0.24 0.14 0 0.26 0.14 0 0.28 0.14 0 
0.3 0.14 0 0.32 0.14 0 0.34 0.14 0 
0.36 0.14 0 0.38 0.14 0 0.4 0.14 0 
0.42 0.14 0 0.44 0.14 0 0.46 0.14 0 
0.48 0.14 0 0.5 0.14 0 0.52 0.14 0 
0.54 0.14 0 0.56 0.14 0 0.58 0.14 0 
0.6 0.14 0 0.62 0.14 0 0.64 0.14 0 
0.66 0.14 0 0.68 0.14 0 0.7 0.14 0 
0.72 0.14 0 0.74 0.14 0 0.76 0.14 0 
0.78 0.14 0 0.8 0.14 0 0.82 0.14 0 
0.84 0.14 0 0.86 0.14 0 0.88 0.14 0 
0.9 0.14 0 0.92 0.14 0 0.94 0.14 0 
0.96 0.14 0 0.98 0.14 0 1 0.14 0 
0 0.16 0 0.02 0.16 0 0.04 0.16 0 
0.06 0.16 0 0.08 0.16 0 0.1 0.16 0 
0.12 0.16 0 0.14 0.16 0 0.16 0.16 0 
0.18 0.16 0 0.2 0.16 0 0.22 0.16 0 
0.24 0.16 0 0.26 0.16 0 0.28 0.16 0 
0.3 0.16 0 0.32 0.16 0 0.34 0.16 0 
0.36 0.16 0 0.38 0.16 0 0.4 0.16 0 
0.42 0.16 0 0.44 0.16 0 0.46 0.16 0 
0.48 0.16 0 0.5 0.16 0 0.52 0.16 0 
0.54 0.16 0 0.56 0.16 0 0.58 0.16 0 
0.6 0.16 0 0.62 0.16 0 0.64 0.16 0 
0.66 0.16 0 0.68 0.16 0 0.7 0.16 0 
0.72 0.16 0 0.74 0.16 0 0.76 0.16 0 
0.78 0.16 0 0.8 0.16 0 0.82 0.16 0 
0.84 0.16 0 0.86 0.16 0 0.88 0.16 0 
0.9 0.16 0 0.92 0.16 0 0.94 0.16 0 
0.96 0.16 0 0.98 0.16 0 1 0.16 0 
0 0.18 0 0.02 0.18 0 0.04 0.18 0 
0.06 0.18 0 0.08 0.18 0 0.1 0.18 0 
0.12 0.18 0 0.14 0.18 0 0.16 0.18 0 
0.18 0.18 0 0.2 0.18 0 0.22 0.18 0 
0.24 0.18 0 0.26 0.18 0 0.28 0.18 0 
0.3 0.18 0 0.32 0.18 0 0.34 0.18 0 
0.36 0.18 0 0.38 0.18 0 0.4 0.18 0 
0.42 0.18 0 0.44 0.18 0 0.46 0.18 0 
0.48 0.18 0 0.5 0.18 0 0.52 0.18 0 
0.54 0.18 0 0.56 0.18 0 0.58 0.18 0 
0.6 0.18 0 0.62 0.18 0 0.64 0.18 0 
0.66 0.18 0 0.68 0.18 0 0.7 0.18 0 
0.72 0.18 0 0.74 0.18 0 0.76 0.18 0 
0.78 0.18 0 0.8 0.18 0 0.82 0.18 0 
0.84 0.18 0 0.86 0.18 0 0.88 0.18 0 
0.9 0.18 0 0.92 0.18 0 0.94 0.18 0 
0.96 0.18 0 0.98 0.18 0 1 0.18 0 
0 0.2 0 0.02 0.2 0 0.04 0.2 0 
0.06 0.2 0 0.08 0.2 0 0.1 0.2 0 
0.12 0.2 0 0.14 0.2 0 0.16 0.2 0 
0.18 0.2 0 0.2 0.2 0 0.22 0.2 0 
0.24 0.2 0 0.26 0.2 0 0.28 0.2 0 
0.3 0.2 0 0.32 0.2 0 0.34 0.2 0 
0.36 0.2 0 0.38 0.2 0 0.4 0.2 0 
0.42 0.2 0 0.44 0.2 0 0.46 0.2 0 
0.48 0.2 0 0.5 0.2 0 0.52 0.2 0 
0.54 0.2 0 0.56 0.2 0 0.58 0.2 0 
0.6 0.2 0 0.62 0.2 0 0.64 0.2 0 
0.66 0.2 0 0.68 0.2 0 0.7 0.2 0 
0.72 0.2 0 0.74 0.2 0 0.76 0.2 0 
0.78 0.2 0 0.8 0.2 0 0.82 0.2 0 
0.84 0.2 0 0.86 0.2 0 0.88 0.2 0 
0.9 0.2 0 0.92 0.2 0 0.94 0.2 0 
0.96 0.2 0 0.98 0.2 0 1 0.2 0 
0 0.22 0 0.02 0.22 0 0.04 0.22 0 
0.06 0.22 0 0.08 0.22 0 0.1 0.22 0 
0.12 0.22 0 0.14 0.22 0 0.16 0.22 0 
0.18 0.22 0 0.2 0.22 0 0.22 0.22 0 
0.24 0.22 0 0.26 0.22 0 0.28 0.22 0 
0.3 0.22 0 0.32 0.22 0 0.34 0.22 0 
0.36 0.22 0 0.38 0.22 0 0.4 0.22 0 
0.42 0.22 0 0.44 0.22 0 0.46 0.22 0 
0.48 0.22 0 0.5 0.22 0 0.52 0.22 0 
0.54 0.22 0 0.56 0.22 0 0.58 0.22 0 
0.6 0.22 0 0.62 0.22 0 0.64 0.22 0 
0.66 0.22 0 0.68 0.22 0 0.7 0.22 0 
0.72 0.22 0 0.74 0.22 0 0.76 0.22 0 
0.78 0.22 0 0.8 0.22 0 0.82 0.22 0 
0.84 0.22 0 0.86 0.22 0 0.88 0.22 0 
0.9 0.22 0 0.92 0.22 0 0.94 0.22 0 
0.96 0.22 0 0.98 0.22 0 1 0.22 0 
0 0.24 0 0.02 0.24 0 0.04 0.24 0 
0.06 0.24 0 0.08 0.24 0 0.1 0.24 0 
0.12 0.24 0 0.14 0.24 0 0.16 0.24 0 
0.18 0.24 0 0.2 0.24 0 0.22 0.24 0 
0.24 0.24 0 0.26 0.24 0 0.28 0.24 0 
0.3 0.24 0 0.32 0.24 0 0.34 0.24 0 
0.36 0.24 0 0.38 0.24 0 0.4 0.24 0 
0.42 0.24 0 0.44 0.24 0 0.46 0.24 0 
0.48 0.24 0 0.5 0.24 0 0.52 0.24 0 
0.54 0.24 0 0.56 0.24 0 0.58 0.24 0 
0.6 0.24 0 0.62 0.24 0 0.64 0.24 0 
0.66 0.24 0 0.68 0.24 0 0.7 0.24 0 
0.72 0.24 0 0.74 0.24 0 0.76 0.24 0 
0.78 0.24 0 0.8 0.24 0 0.82 0.24 0 
0.84 0.24 0 0.86 0.24 0 0.88 0.24 0 
0.9 0.24 0 0.92 0.24 0 0.94 0.24 0 
0.96 0.24 0 0.98 0.24 0 1 0.24 0 
0 0.26 0 0.02 0.26 0 0.04 0.26 0 
0.06 0.26 0 0.08 0.26 0 0.1 0.26 0 
0.12 0.26 0 0.14 0.26 0 0.16 0.26 0 
0.18 0.26 0 0.2 0.26 0 0.22 0.26 0 
0.24 0.26 0 0.26 0.26 0 0.28 0.26 0 
0.3 0.26 0 0.32 0.26 0 0.34 0.26 0 
0.36 0.26 0 0.38 0.26 0 0.4 0.26 0 
0.42 0.26 0 0.44 0.26 0 0.46 0.26 0 
0.48 0.26 0 0.5 0.26 0 0.52 0.26 0 
0.54 0.26 0 0.56 0.26 0 0.58 0.26 0 
0.6 0.26 0 0.62 0.26 0 0.64 0.26 0 
0.66 0.26 0 0.68 0.26 0 0.7 0.26 0 
0.72 0.26 0 0.74 0.26 0 0.76 0.26 0 
0.78 0.26 0 0.8 0.26 0 0.82 0.26 0 
0.84 0.26 0 0.86 0.26 0 0.88 0.26 0 
0.9 0.26 0 0.92 0.26 0 0.94 0.26 0 
0.96 0.26 0 0.98 0.26 0 1 0.26 0 
0 0.28 0 0.02 0.28 0 0.04 0.28 0 
0.06 0.28 0 0.08 0.28 0 0.1 0.28 0 
0.12 0.28 0 0.14 0.28 0 0.16 0.28 0 
0.18 0.28 0 0.2 0.28 0 0.22 0.28 0 
0.24 0.28 0 0.26 0.28 0 0.28 0.28 0 
0.3 0.28 0 0.32 0.28 0 0.34 0.28 0 
0.36 0.28 0 0.38 0.28 0 0.4 0.28 0 
0.42 0.28 0 0.44 0.28 0 0.46 0.28 0 
0.48 0.28 0 0.5 0.28 0 0.52 0.28 0 
0.54 0.28 0 0.56 0.28 0 0.58 0.28 0 
0.6 0.28 0 0.62 0.28 0 0.64 0.28 0 
0.66 0.28 0 0.68 0.28 0 0.7 0.28 0 
0.72 0.28 0 0.74 0.28 0 0.76 0.28 0 
0.78 0.28 0 0.8 0.28 0 0.82 0.28 0 
0.84 0.28 0 0.86 0.28 0 0.88 0.28 0 
0.9 0.28 0 0.92 0.28 0 0.94 0.28 0 
0.96 0.28 0 0.98 0.28 0 1 0.28 0 
0 0.3 0 0.02 0.3 0 0.04 0.3 0 
0.06 0.3 0 0.08 0.3 0 0.1 0.3 0 
0.12 0.3 0 0.14 0.3 0 0.16 0.3 0 
0.18 0.3 0 0.2 0.3 0 0.22 0.3 0 
0.24 0.3 0 0.26 0.3 0 0.28 0.3 0 
0.3 0.3 0 0.32 0.3 0 0.34 0.3 0 
0.36 0.3 0 0.38 0.3 0 0.4 0.3 0 
0.42 0.3 0 0.44 0.3 0 0.46 0.3 0 
0.48 0.3 0 0.5 0.3 0 0.52 0.3 0 
0.54 0.3 0 0.56 0.3 0 0.58 0.3 0 
0.6 0.3 0 0.62 0.3 0 0.64 0.3 0 
0.66 0.3 0 0.68 0.3 0 0.7 0.3 0 
0.72 0.3 0 0.74 0.3 0 0.76 0.3 0 
0.78 0.3 0 0.8 0.3 0 0.82 0.3 0 
0.84 0.3 0 0.86 0.3 0 0.88 0.3 0 
0.9 0.3 0 0.92 0.3 0 0.94 0.3 0 
0.96 0.3 0 0.98 0.3 0 1 0.3 0 
0 0.32 0 0.02 0.32 0 0.04 0.32 0 
0.06 0.32 0 0.08 0.32 0 0.1 0.32 0 
0.12 0.32 0 0.14 0.32 0 0.16 0.32 0 
0.18 0.32 0 0.2 0.32 0 0.22 0.32 0 
0.24 0.32 0 0.26 0.32 0 0.28 0.32 0 
0.3 0.32 0 0.32 0.32 0 0.34 0.32 0 
0.36 0.32 0 0.38 0.32 0 0.4 0.32 0 
0.42 0.32 0 0.44 0.32 0 0.46 0.32 0 
0.48 0.32 0 0.5 0.32 0 0.52 0.32 0 
0.54 0.32 0 0.56 0.32 0 0.58 0.32 0 
[...]
CELL_DATA 2500
FIELD FieldData 1
pressure 1 2500 double
0.0061709212955 0.0061025326147 0.005912450664 0.0056386159047 0.0053202749525 0.0049907940842 0.0046760954508 0.0043947363492 0.0041589319199 
0.0039762218597 0.0038512351633 0.0037870188261 0.0037857427629 0.0038489303972 0.0039774665636 0.0041715566991 0.0044307158078 0.0047538152151 
0.0051391685577 0.0055845746332 0.0060872082689 0.0066433171243 0.0072478088102 0.0078938951048 0.0085729260048 0.0092744196224 0.0099858203814 
0.010693776595 0.011384357807 0.012043125908 0.012655497382 0.013207221818 0.013684953758 0.014076877241 0.014373336727 0.014567433658 
0.014655549751 0.014637758401 0.014518094616 0.014304669399 0.014009630379 0.013648987813 0.013242341098 0.012812545628 0.012385352515 
0.01198891904 0.011653053149 0.011407288716 0.011275719391 0.011263276976 0.0062361502587 0.006170087494 0.0060087947463 0.0057809919305 
0.005516312821 0.005241411893 0.0049774918536 0.004739913973 0.0045392659137 0.0043829031587 0.0042761759201 0.0042230645131 0.0042263881707 
0.0042878846037 0.00440834216 0.0045878076688 0.0048258112736 0.0051215321526 0.0054738307502 0.0058810959442 0.0063409239209 0.006849736451 
0.0074024882118 0.0079925615301 0.008611837443 0.0092508516326 0.0098979821484 0.010541330281 0.011168449753 0.011766361868 0.012321942012 
0.01282240833 0.013255875294 0.013611928253 0.013882185251 0.01406081775 0.014144996603 0.014135230437 0.014035573526 0.013853691438 
0.013600784656 0.013291383936 0.012943037499 0.012575904922 0.012212250515 0.011875777542 0.011590606309 0.011379696122 0.011262212213 
0.011250820948 0.0064303031654 0.0063341465177 0.0061690856241 0.0059572193469 0.0057212448488 0.0054810503894 0.0052521757964 0.0050461564053 
0.0048717190871 0.0047357838049 0.0046438521335 0.0045999824559 0.0046067671965 0.0046655561986 0.0047768859807 0.0049409155747 0.0051576846341 
0.0054271131769 0.0057487663955 0.0061214840144 0.0065430173543 0.007009805055 0.0075169384339 0.008058261284 0.0086264886491 0.0092132627464 
0.0098076766818 0.010398941263 0.01097561563 0.011525687119 0.012037005802 0.012497784721 0.012897125774 0.013225544605 0.013475479683 
0.013641762221 0.013722012527 0.013716931922 0.013630469 0.013469847516 0.01324545453 0.012970596595 0.01266113451 0.012335005977 
0.012011638149 0.01171123613 0.011453909472 0.011258678382 0.011142584425 0.011121052302 0.0067156387131 0.0065645925191 0.0063730287779 
0.0061565080069 0.0059306946958 0.0057086692296 0.0055006542622 0.0053149010246 0.0051585153987 0.0050376109691 0.0049569645936 0.0049197325111 
0.0049276200941 0.0049814646075 0.0050818811949 0.0052296271969 0.00542556335 0.0056703167622 0.0059638493899 0.0063051146067 0.0066919006966 
0.0071208547992 0.0075875936894 0.0080867800669 0.0086120900792 0.0091560999242 0.0097083272654 0.010258682548 0.01079634766 0.011309939724 
0.011787955555 0.012219247213 0.012593507741 0.012901761976 0.013136852905 0.01329389237 0.013370637425 0.013367761677 0.01328899904 
0.013141144811 0.012933909081 0.012679624585 0.012392820078 0.012089678862 0.011787408133 0.011503546778 0.011255248891 0.011058634746 
0.010928413799 0.010878223931 0.0070511581677 0.0068323437965 0.006600744062 0.0063655831681 0.0061356646289 0.0059181534539 0.0057191329918 
0.0055443480475 0.005399263066 0.0052884719663 0.005215099035 0.0051807812131 0.0051862925579 0.0052323652547 0.0053201753325 0.0054512762267 
0.0056271469118 0.0058486838527 0.0061158788613 0.0064277400695 0.0067823697609 0.0071770616783 0.0076083110046 0.0080717017897 0.0085617128992 
0.0090715462248 0.0095909259874 0.010110176549 0.01061889937 0.011106131345 0.011560753438 0.01197192734 0.012329558282 0.012624784539 
0.012850472276 0.013001673279 0.013076004999 0.013073921316 0.012998847547 0.012857160462 0.012658003918 0.012412943497 0.012135481509 
0.01184046632 0.011543438925 0.011259962722 0.011004988191 0.010792318007 0.010634253903 0.010541448505 0.0074022750471 0.0071111322212 
0.0068320987439 0.0065686136397 0.006323742084 0.0061002655721 0.0059013216079 0.0057304874395 0.0055911124811 0.0054854851426 0.0054145748269 
0.0053785857854 0.005377885667 0.0054136198367 0.0054876493814 0.0056019881952 0.0057581948756 0.0059570578264 0.0061986054215 0.0064822532777 
0.0068068806071 0.0071707447236 0.0075712679099 0.0080047823727 0.0084663155462 0.0089494864606 0.0094442047102 0.0099410544166 0.010429945193 
0.010900147975 0.011340660976 0.011740627841 0.01208981 0.012379103186 0.012601060689 0.012750375401 0.01282428004 0.012822830207 
0.012749038662 0.012608838151 0.012410863367 0.012166063601 0.011887176115 0.011588101119 0.011283227739 0.010986762887 0.010712114037 
0.010471366246 0.010274856925 0.010130735804 0.0077411263415 0.0073773112759 0.0070468271631 0.0067484064854 0.0064810196387 0.0062444676618 
0.0060395292355 0.0058673557928 0.0057285563138 0.0056227483226 0.0055489797692 0.0055066874671 0.00549642827 0.0055198653649 0.0055791263168 
0.0056760789872 0.0058119892202 0.0059876131808 0.0062034390122 0.0064597645876 0.0067565091532 0.0070928718289 0.0074670028366 0.0078757717151 
0.0083146398566 0.008777631639 0.0092549735925 0.0097373758002 0.010214936165 0.010676952708 0.011112272142 0.011509719167 0.011858601635 
0.012149266751 0.012373661166 0.012525847131 0.012602432742 0.012602876543 0.012529631804 0.012388106642 0.012186433047 0.01193506041 
0.011646202471 0.011333180207 0.011009715487 0.010689235253 0.010384240206 0.010105768409 0.0098629316692 0.0096624127391 0.0080444611958 
0.007609198225 0.0072252235396 0.0068879447825 0.006593647562 0.006339845576 0.0061248324354 0.0059468232951 0.0058034231284 0.0056919269509 
0.0056102545696 0.0055577711385 0.0055353586396 0.0055447495331 0.0055876961673 0.0056655623102 0.0057794636031 0.0059306145162 0.0061204479249 
0.0063503507888 0.0066211862429 0.0069328662471 0.0072840971652 0.0076722545241 0.0080933100963 0.0085417892089 0.0090083993708 0.0094837801093 
0.009958070466 0.010420393798 0.010859213788 0.011262790238 0.011619722008 0.011919541878 0.012153314724 0.012314193629 0.012397890616 
0.012403019798 0.012331275461 0.012187417417 0.01197905417 0.011716233841 0.011410867989 0.011076036609 0.010725239192 0.010371662296 
0.010027522805 0.0097035162993 0.0094083465827 0.009148246729 0.0082917336628 0.0077868285997 0.0073489563475 0.0069713733973 0.0066483485696 
0.0063750286873 0.0061467594575 0.00595858801 0.0058055060886 0.0056833555321 0.0055897155276 0.0055240795267 0.0054872216806 0.005480295014 
0.0055043350488 0.0055604006179 0.0056500102611 0.0057753377928 0.0059389220226 0.0061430763436 0.0063893509884 0.0066782346817 0.0070090327005 
0.0073797737325 0.0077870840171 0.0082260608938 0.0086880337252 0.0091633252299 0.0096419887216 0.01011282387 0.010563745043 0.010982259762 
0.011356039852 0.011673547575 0.011924673455 0.012101344086 0.012198055172 0.012212282674 0.012144725858 0.011999345284 0.011783178324 
0.011505934739 0.01117939993 0.010816703353 0.010431526145 0.01003732606 0.0096466434449 0.0092705217068 0.0089180266541 0.0085957975822 
0.0084641752744 0.0078920305873 0.0074014358129 0.0069840621309 0.006632067082 0.0063377616763 0.0060932745005 0.0058908321011 0.0057236816301 
0.0055870536556 0.0054784594254 0.005397134442 0.005343109838 0.0053166291355 0.0053182483831 0.0053493272515 0.0054123126162 0.0055104721162 
0.0056472375056 0.0058255698143 0.0060476018533 0.0063145054375 0.0066263869975 0.0069821012977 0.0073790168406 0.0078128138371 0.0082756040322 
0.0087571660581 0.0092474103892 0.0097347391642 0.010206412897 0.010649034589 0.011049135079 0.011393828415 0.011671501866 0.011872498971 
0.011989744088 0.012019250043 0.011960450302 0.011816309216 0.011593185162 0.011300445514 0.010949864887 0.010554867693 0.010129692284 
0.0096885597757 0.0092449183044 0.0088108062572 0.0083963331698 0.008009229686 0.0085445707779 0.0079084166356 0.0073675970138 0.0069121077467 
0.0065314974818 0.0062148895891 0.005951428807 0.0057313129362 0.0055468906696 0.0053931171024 0.0052671123601 0.0051672445204 0.005092472319 
0.0050423792641 0.0050176829517 0.0050205994156 0.0050546333197 0.0051239027865 0.0052324383554 0.0053837690907 0.0055807669205 0.0058255295943 
0.0061191521093 0.0064614062926 0.0068504307799 0.0072825013304 0.0077507631546 0.0082442954827 0.0087528905919 0.0092645420317 0.009765785233 
0.010242170114 0.010678857357 0.011061314962 0.011376080804 0.011611542396 0.011758672082 0.011811648964 0.011768300788 0.011630311917 
0.011403163496 0.01109579901 0.010720041905 0.010289821568 0.0098202854905 0.009326887722 0.0088245364492 0.0083268592608 0.0078456022248 
0.0073901302607 0.0085172314193 0.0078211477962 0.0072334285023 0.0067419048137 0.006333072441 0.0059929457295 0.0057083445248 0.0054682438901 
0.0052644780457 0.0050914743787 0.0049453848914 0.0048233675473 0.0047235389633 0.0046454735436 0.0045906355093 0.0045622414462 0.0045645999237 
0.0046023747231 0.0046801300412 0.0048021533563 0.0049723256502 0.0051938639213 0.0054689392006 0.0057982775647 0.0061808317264 0.006613552158 
0.0070909987842 0.0076014703316 0.0081347268793 0.0086783748863 0.0092181631721 0.0097384433101 0.010222786611 0.010654732925 0.011018632352 
0.011300526012 0.011489000797 0.011575945948 0.011557138255 0.01143259001 0.011206610881 0.010887562619 0.010487319289 0.010020481063 
0.0095034210155 0.0089532643213 0.0083868981999 0.0078200895948 0.0072667483026 0.0067383228889 0.0083679089179 0.0076166166654 0.0069856380963 
0.0064601203623 0.0060234238953 0.005658951486 0.0053519359761 0.005090553032 0.0048659495252 0.0046714877319 0.0045019829717 0.0043535616439 
0.0042241277022 0.0041138531064 0.0040251226823 0.0039619064619 0.0039290031016 0.0039315571382 0.0039748720245 0.0040642778252 0.0042048587446 
0.0044010332676 0.0046560914839 0.0049717821643 0.005347983281 0.0057824541301 0.0062717460637 0.0068032745147 0.0073669095522 0.0079499164423 
0.0085372266825 0.0091118962797 0.0096557409186 0.010150124389 0.010576866639 0.010919224085 0.01116288086 0.011296875215 0.011314375246 
0.011213218523 0.010996145449 0.010670683253 0.010248674219 0.0097454858166 0.0091789818484 0.0085683624685 0.0079329892265 0.0072912959209 
0.0066598515073 0.0060525898753 0.0080836545714 0.0072822221128 0.0066115961865 0.0060539906045 0.0055899620402 0.0052009602389 0.0048710947953 
0.004587663604 0.0043406419477 0.0041219268471 0.0039250952203 0.0037458162974 0.003582395303 0.0034358154335 0.0033091567396 0.0032068198978 
0.0031340127497 0.0030965619105 0.003100796316 0.0031532797286 0.0032603751879 0.0034277465923 0.0036598888295 0.0039597203428 0.0043282337844 
0.00476419362 0.0052666433283 0.0058222227158 0.0064210708072 0.0070502055377 0.0076937904783 0.0083335736801 0.008949507881 0.0095205493144 
0.010025619669 0.010444694643 0.010759958958 0.010956942683 0.011025535442 0.010960771035 0.010763287058 0.010439388095 0.010000680895 
0.0094633015268 0.0088468066399 0.0081728430863 0.007463733496 0.0067411097597 0.0060246981179 0.0053313078867 0.007652691435 0.0068062844828 
0.0060994764635 0.0055116955115 0.0050212711151 0.004608210549 0.0042555380984 0.0039492661677 0.0036777724364 0.0034314872239 0.0032032370918 
0.0029888373807 0.0027872542151 0.0026000931834 0.0024307993657 0.002284091924 0.0021657659065 0.0020826069691 0.0020421539419 0.0020522702962 
0.00212063416 0.0022542419571 0.0024589555117 0.0027390840508 0.0030969805072 0.0035326495841 0.0040478130881 0.0046289450342 0.0052666058061 
0.0059477387163 0.0066558906188 0.0073715685308 0.0080727978732 0.0087359081514 0.009336545282 0.0098508789197 0.010256942014 0.010536008391 
0.010673890277 0.010662027361 0.010498241593 0.010187049007 0.0097394604616 0.0091722613572 0.0085068266795 0.0077675895113 0.0069803250068 
0.0061704212437 0.0053612908508 0.0045730261805 0.0070643299864 0.0061780754909 0.0054384797895 0.0048226616079 0.0043072817585 0.0038710809509 
0.003495699033 0.0031654308511 0.0028669492254 0.0025895949839 0.002326018532 0.002072491455 0.0018285058341 0.001595958935 0.0013785060082 
0.0011813217773 0.0010110455604 0.00087559660481 0.00078377663669 0.00074476774531 0.00076763389704 0.00086085716772 0.0010318924343 0.0012867078493 
0.0016292791874 0.0020610289968 0.0025862703631 0.0031926581135 0.003871177987 0.0046089672246 0.0053892083529 0.0061913083897 0.0069913592915 
0.0077628951901 0.0084779450451 0.009108352441 0.009627303585 0.010010969193 0.010240133366 0.010301658784 0.01018962376 0.0099059737693 
0.0094605682162 0.0088705676594 0.0081591902381 0.0073539525374 0.0064845822402 0.0055808242318 0.004670362082 0.0037770261015 0.0063089523332 
0.0053879531695 0.0046190949826 0.0039777859429 0.0034393422895 0.0029810822243 0.0025828570348 0.0022270415575 0.0018988562608 0.0015870809087 
0.0012845537468 0.00098794243941 0.00069694854098 0.00041355820328 0.00014171730743 -0.00011271720586 -0.00034209936208 -0.00053733822613 -0.00068837565934 
-0.00078467202102 -0.00081565541892 -0.00077115559204 -0.00064186625685 -0.00041987435876 -9.9260408478e-05 0.00032324659689 0.00085252903353 0.0014820685752 
0.0022016363716 0.0029991268322 0.0038577513199 0.0047560644256 0.005668326226 0.0065652095874 0.0074148608902 0.008184304897 0.008841152938 
0.0093555291682 0.009702082325 0.0098619071307 0.0098241656591 0.0095871918713 0.0091588923667 0.0085563242657 0.0078044326125 0.0069340468583 
0.0059793484623 0.0049750940461 0.0039539048201 0.0029438843708 0.0053781186329 0.0044276113362 0.0036333779512 0.0029696027584 0.0024102716934 
0.0019309485681 0.0015094274053 0.0011262906778 0.00076577526744 0.00041651798925 7.1581728325e-05 -0.00027224903221 -0.00061531098395 -0.00095551800385 
-0.0012884481905 -0.0016074137242 -0.0019037376554 -0.0021671932393 -0.0023864694429 -0.0025495938499 -0.0026443289113 -0.0026585998364 -0.0025810093085 
-0.0024014435009 -0.002111703774 -0.0017060327465 -0.0011812340139 -0.00053308978033 0.00022530236436 0.0010833607962 0.002024832759 0.0030278020435 
0.0040649470463 0.0051041498494 0.006109510876 0.007042797969 0.0078653168985 0.0085401331646 0.0090345113546 0.0093223732734 0.0093865183972 
0.0092203198933 0.0088286218799 0.0082276287376 0.0074436957146 0.0065110850813 0.0054689188345 0.0043576850468 0.0032157200865 0.0020760490738 
0.0042648315572 0.0032904023376 0.0024751831766 0.0017923608193 0.0012143778353 0.00071475426268 0.00026924519913 -0.0001429603311 -0.00053814268929 
-0.00092765560604 -0.0013184244548 -0.0017138278187 -0.0021143069262 -0.0025175427162 -0.0029185038334 -0.0033096564647 -0.0036813563866 -0.0040222918061 
-0.0043198800502 -0.0045606148067 -0.0047304300906 -0.0048151619758 -0.0048011369516 -0.0046758401695 -0.0044285895363 -0.0040511814215 -0.0035385309811 
-0.002880366844 -0.0020885141799 -0.0011718342884 -0.00014553916303 0.00096850054049 0.0021417954905 0.0033396657093 0.0045221409452 0.005645399236 
0.0066637625476 0.0075322038494 0.0082092419376 0.0086600114039 0.0088592064577 0.0087935321446 0.0084632804978 0.0078827008892 0.0070789645835 
0.0060897212492 0.0049594801233 0.003735249437 0.0024619932866 0.0011784473114 0.0029639008133 0.0019716163847 0.0011402566477 0.00044197853856 
-0.00015257213038 -0.00067197845553 -0.0011421998948 -0.0015849400789 -0.0020167188771 -0.0024489956714 -0.0028889728441 -0.0033403362828 -0.0038035618733 
-0.0042759819958 -0.0047519429448 -0.0052231490399 -0.0056790850726 -0.0061073958929 -0.0064941896001 -0.0068243237708 -0.0070817781745 -0.0072501736799 
-0.0073134036174 -0.0072563049817 -0.0070653562431 -0.0067294821126 -0.0062411281667 -0.0055836501218 -0.0047668713875 -0.0037967890072 -0.0026867947259 
-0.0014580115284 -0.00013949896995 0.0012319227195 0.0026123817126 0.0039523055973 0.0051984758339 0.006296780034 0.0071955650817 0.0078493792436 
0.0082227643094 0.0082936477929 0.0080558252062 0.0075200429697 0.0067133244557 0.0056764218221 0.0044595939199 0.0031172148625 0.0017019373309 
0.00025916189226 0.0014722642865 0.00046860436723 -0.00037383092172 -0.0010840705084 -0.0016933566959 -0.00223212181 -0.0027275244971 -0.0032017604149 
-0.0036715769279 -0.0041488030559 -0.0046411305198 -0.005152554415 -0.0056834927095 -0.0062309117395 -0.0067886284245 -0.0073477191728 -0.0078968979955 
-0.0084227942701 -0.0089101681894 -0.009342178553 -0.0097007963178 -0.009967351368 -0.010123131156 -0.010150003916 -0.010031138948 -0.0097519059187 
-0.0093009387841 -0.0086601553964 -0.0078308921383 -0.0068163650399 -0.0056274624785 -0.0042837307459 -0.0028140054665 -0.0012565892078 0.0003411673778 
0.0019240248164 0.0034308693768 0.0047976338208 0.0059610751617 0.0068632205158 0.0074561217497 0.0077063907002 0.0075988606668 0.0071386849223 
0.0063512957572 0.0052799218965 0.0039807755233 0.0025164636516 0.00094853870797 -0.00066978804847 -0.00021085901807 -0.001219272366 -0.0020678264905 
-0.0027868235249 -0.0034091946472 -0.0039667113875 -0.0044872217207 -0.0049932506799 -0.005501969935 -0.0060258356365 -0.0065731070406 -0.0071480282787 
-0.0077509344287 -0.0083785154386 -0.0090242187792 -0.0096786451317 -0.010329828729 -0.010963406418 -0.011562787239 -0.012109445734 -0.012583357911 
-0.012963498021 -0.013228346819 -0.013356485546 -0.013327383694 -0.013122396505 -0.012725909122 -0.012119794153 -0.011293588916 -0.010247389306 
-0.0089884724549 -0.0075337392861 -0.0059107664254 -0.0041584053146 -0.0023267575063 -0.00047633147619 0.0013237995797 0.0029989657809 0.0044730212027 
0.0056734825666 0.0065373349982 0.007016913965 0.0070850563333 0.0067385921654 0.0059993092433 0.0049118097948 0.0035381945754 0.0019501311263 
0.00021942486813 -0.001591540583 -0.0020840034952 -0.0030907871585 -0.0039409037278 -0.0046657865289 -0.0052995644528 -0.0058747488757 -0.0064195478809 
-0.0069568971787 -0.0075046575669 -0.0080760635697 -0.0086799276361 -0.0093207150947 -0.0099987561885 -0.010710638536 -0.011449635894 -0.012206023113 
-0.012967235344 -0.013717964764 -0.014440339599 -0.015114241714 -0.015717691768 -0.016227228284 -0.016618339327 -0.016866083989 -0.016945955332 
-0.016834902135 -0.016512366333 -0.015960961734 -0.01515685231 -0.014095782299 -0.012780208272 -0.011223148162 -0.0094496620663 -0.0074979354468 
-0.0054197548909 -0.0032801245195 -0.0011557642304 0.00086773714471 0.0027002478138 0.0042528549492 0.0054447602119 0.0062106875363 0.0065078530133 
0.0063212996706 0.0056663584883 0.0045872573409 0.0031515080838 0.0014405380616 -0.00046212544385 -0.0024833330702 -0.0041436126576 -0.0051430078035 
-0.0059907143247 -0.006718858285 -0.0073620983572 -0.0079531814273 -0.0085205905633 -0.0090878903707 -0.0096738382323 -0.010292492493 -0.010953201819 
-0.011660718753 -0.012415548813 -0.013214409519 -0.014050606494 -0.014914224943 -0.015792192166 -0.016668365186 -0.017523739488 -0.018336730223 
-0.019083430429 -0.019737872686 -0.020272444696 -0.020658562964 -0.020867568591 -0.020871792995 -0.020645858844 -0.020168472621 -0.019408933754 
-0.018353821998 -0.016999539207 -0.015353899592 -0.013438021695 -0.011287950925 -0.0089557473482 -0.0065097227693 -0.0040334753082 -0.0016233760554 
0.00061575943462 0.0025769056313 0.0041587701796 0.0052748497494 0.0058625408983 0.0058908289584 0.0053648675998 0.0043259279994 0.002845861537 
0.001016296599 -0.0010659905613 -0.0033152564222 -0.0063842532845 -0.0073714600683 -0.008213452388 -0.0089423545535 -0.0095926750104 -0.010197094607 
-0.010784472309 -0.011379226595 -0.012001122614 -0.01266505678 -0.01338097751 -0.014154109759 -0.014985400651 -0.015871959749 -0.016807319136 
-0.017781507224 -0.018781079297 -0.019789239051 -0.020786036966 -0.02174853603 -0.02265092517 -0.023464721066 -0.024159205223 -0.02470209679 
-0.025060397571 -0.025201440578 -0.02509427454 -0.024711598784 -0.024022447183 -0.02299779388 -0.021627106843 -0.019911707224 -0.017867251185 
-0.01552595983 -0.012938434064 -0.010174675279 -0.0073238665879 -0.004492448755 -0.0018000677064 0.00062688223333 0.0026640987382 0.0042001054149 