# vtk DataFile Version 4.1
vtk output
ASCII
DATASET STRUCTURED_GRID
DIMENSIONS 51 51 1
POINTS 2601 float
0 0 0 0.02 0 0 0.04 0 0 
0.06 0 0 0.08 0 0 0.1 0 0 
0.12 0 0 0.14 0 0 0.16 0 0 
0.18 0 0 0.2 0 0 0.22 0 0 
0.24 0 0 0.26 0 0 0.28 0 0 
0.3 0 0 0.32 0 0 0.34 0 0 
0.36 0 0 0.38 0 0 0.4 0 0 
0.42 0 0 0.44 0 0 0.46 0 0 
0.48 0 0 0.5 0 0 0.52 0 0 
0.54 0 0 0.56 0 0 0.58 0 0 
0.6 0 0 0.62 0 0 0.64 0 0 
0.66 0 0 0.68 0 0 0.7 0 0 
0.72 0 0 0.74 0 0 0.76 0 0 
0.78 0 0 0.8 0 0 0.82 0 0 
0.84 0 0 0.86 0 0 0.88 0 0 
0.9 0 0 0.92 0 0 0.94 0 0 
0.96 0 0 0.98 0 0 1 0 0 
0 0.02 0 0.02 0.02 0 0.04 0.02 0 
0.06 0.02 0 0.08 0.02 0 0.1 0.02 0 
0.12 0.02 0 0.14 0.02 0 0.16 0.02 0 
0.18 0.02 0 0.2 0.02 0 0.22 0.02 0 
0.24 0.02 0 0.26 0.02 0 0.28 0.02 0 
0.3 0.02 0 0.32 0.02 0 0.34 0.02 0 
0.36 0.02 0 0.38 0.02 0 0.4 0.02 0 
0.42 0.02 0 0.44 0.02 0 0.46 0.02 0 
0.48 0.02 0 0.5 0.02 0 0.52 0.02 0 
0.54 0.02 0 0.56 0.02 0 0.58 0.02 0 
0.6 0.02 0 0.62 0.02 0 0.64 0.02 0 
0.66 0.02 0 0.68 0.02 0 0.7 0.02 0 
0.72 0.02 0 0.74 0.02 0 0.76 0.02 0 
0.78 0.02 0 0.8 0.02 0 0.82 0.02 0 
0.84 0.02 0 0.86 0.02 0 0.88 0.02 0 
0.9 0.02 0 0.92 0.02 0 0.94 0.02 0 
0.96 0.02 0 0.98 0.02 0 1 0.02 0 
0 0.04 0 0.02 0.04 0 0.04 0.04 0 
0.06 0.04 0 0.08 0.04 0 0.1 0.04 0 
0.12 0.04 0 0.14 0.04 0 0.16 0.04 0 
0.18 0.04 0 0.2 0.04 0 0.22 0.04 0 
0.24 0.04 0 0.26 0.04 0 0.28 0.04 0 
0.3 0.04 0 0.32 0.04 0 0.34 0.04 0 
0.36 0.04 0 0.38 0.04 0 0.4 0.04 0 
0.42 0.04 0 0.44 0.04 0 0.46 0.04 0 
0.48 0.04 0 0.5 0.04 0 0.52 0.04 0 
0.54 0.04 0 0.56 0.04 0 0.58 0.04 0 
0.6 0.04 0 0.62 0.04 0 0.64 0.04 0 
0.66 0.04 0 0.68 0.04 0 0.7 0.04 0 
0.72 0.04 0 0.74 0.04 0 0.76 0.04 0 
0.78 0.04 0 0.8 0.04 0 0.82 0.04 0 
0.84 0.04 0 0.86 0.04 0 0.88 0.04 0 
0.9 0.04 0 0.92 0.04 0 0.94 0.04 0 
0.96 0.04 0 0.98 0.04 0 1 0.04 0 
0 0.06 0 0.02 0.06 0 0.04 0.06 0 
0.06 0.06 0 0.08 0.06 0 0.1 0.06 0 
0.12 0.06 0 0.14 0.06 0 0.16 0.06 0 
0.18 0.06 0 0.2 0.06 0 0.22 0.06 0 
0.24 0.06 0 0.26 0.06 0 0.28 0.06 0 
0.3 0.06 0 0.32 0.06 0 0.34 0.06 0 
0.36 0.06 0 0.38 0.06 0 0.4 0.06 0 
0.42 0.06 0 0.44 0.06 0 0.46 0.06 0 
0.48 0.06 0 0.5 0.06 0 0.52 0.06 0 
0.54 0.06 0 0.56 0.06 0 0.58 0.06 0 
0.6 0.06 0 0.62 0.06 0 0.64 0.06 0 
0.66 0.06 0 0.68 0.06 0 0.7 0.06 0 
0.72 0.06 0 0.74 0.06 0 0.76 0.06 0 
0.78 0.06 0 0.8 0.06 0 0.82 0.06 0 
0.84 0.06 0 0.86 0.06 0 0.88 0.06 0 
0.9 0.06 0 0.92 0.06 0 0.94 0.06 0 
0.96 0.06 0 0.98 0.06 0 1 0.06 0 
0 0.08 0 0.02 0.08 0 0.04 0.08 0 
0.06 0.08 0 0.08 0.08 0 0.1 0.08 0 
0.12 0.08 0 0.14 0.08 0 0.16 0.08 0 
0.18 0.08 0 0.2 0.08 0 0.22 0.08 0 
0.24 0.08 0 0.26 0.08 0 0.28 0.08 0 
0.3 0.08 0 0.32 0.08 0 0.34 0.08 0 
0.36 0.08 0 0.38 0.08 0 0.4 0.08 0 
0.42 0.08 0 0.44 0.08 0 0.46 0.08 0 
0.48 0.08 0 0.5 0.08 0 0.52 0.08 0 
0.54 0.08 0 0.56 0.08 0 0.58 0.08 0 
0.6 0.08 0 0.62 0.08 0 0.64 0.08 0 
0.66 0.08 0 0.68 0.08 0 0.7 0.08 0 
0.72 0.08 0 0.74 0.08 0 0.76 0.08 0 
0.78 0.08 0 0.8 0.08 0 0.82 0.08 0 
0.84 0.08 0 0.86 0.08 0 0.88 0.08 0 
0.9 0.08 0 0.92 0.08 0 0.94 0.08 0 
0.96 0.08 0 0.98 0.08 0 1 0.08 0 
0 0.1 0 0.02 0.1 0 0.04 0.1 0 
0.06 0.1 0 0.08 0.1 0 0.1 0.1 0 
0.12 0.1 0 0.14 0.1 0 0.16 0.1 0 
0.18 0.1 0 0.2 0.1 0 0.22 0.1 0 
0.24 0.1 0 0.26 0.1 0 0.28 0.1 0 
0.3 0.1 0 0.32 0.1 0 0.34 0.1 0 
0.36 0.1 0 0.38 0.1 0 0.4 0.1 0 
0.42 0.1 0 0.44 0.1 0 0.46 0.1 0 
0.48 0.1 0 0.5 0.1 0 0.52 0.1 0 
0.54 0.1 0 0.56 0.1 0 0.58 0.1 0 
0.6 0.1 0 0.62 0.1 0 0.64 0.1 0 
0.66 0.1 0 0.68 0.1 0 0.7 0.1 0 
0.72 0.1 0 0.74 0.1 0 0.76 0.1 0 
0.78 0.1 0 0.8 0.1 0 0.82 0.1 0 
0.84 0.1 0 0.86 0.1 0 0.88 0.1 0 
0.9 0.1 0 0.92 0.1 0 0.94 0.1 0 
0.96 0.1 0 0.98 0.1 0 1 0.1 0 
0 0.12 0 0.02 0.12 0 0.04 0.12 0 
0.06 0.12 0 0.08 0.12 0 0.1 0.12 0 
0.12 0.12 0 0.14 0.12 0 0.16 0.12 0 
0.18 0.12 0 0.2 0.12 0 0.22 0.12 0 
0.24 0.12 0 0.26 0.12 0 0.28 0.12 0 
0.3 0.12 0 0.32 0.12 0 0.34 0.12 0 
0.36 0.12 0 0.38 0.12 0 0.4 0.12 0 
0.42 0.12 0 0.44 0.12 0 0.46 0.12 0 
0.48 0.12 0 0.5 0.12 0 0.52 0.12 0 
0.54 0.12 0 0.56 0.12 0 0.58 0.12 0 
0.6 0.12 0 0.62 0.12 0 0.64 0.12 0 
0.66 0.12 0 0.68 0.12 0 0.7 0.12 0 
0.72 0.12 0 0.74 0.12 0 0.76 0.12 0 
0.78 0.12 0 0.8 0.12 0 0.82 0.12 0 
0.84 0.12 0 0.86 0.12 0 0.88 0.12 0 
0.9 0.12 0 0.92 0.12 0 0.94 0.12 0 
0.96 0.12 0 0.98 0.12 0 1 0.12 0 
0 0.14 0 0.02 0.14 0 0.04 0.14 0 
0.06 0.14 0 0.08 0.14 0 0.1 0.14 0 
0.12 0.14 0 0.14 0.14 0 0.16 0.14 0 
0.18 0.14 0 0.2 0.14 0 0.22 0.14 0 
0.24 0.14 0 0.26 0.14 0 0.28 0.14 0 
0.3 0.14 0 0.32 0.14 0 0.34 0.14 0 
0.36 0.14 0 0.38 0.14 0 0.4 0.14 0 
0.42 0.14 0 0.44 0.14 0 0.46 0.14 0 
0.48 0.14 0 0.5 0.14 0 0.52 0.14 0 
0.54 0.14 0 0.56 0.14 0 0.58 0.14 0 
0.6 0.14 0 0.62 0.14 0 0.64 0.14 0 
0.66 0.14 0 0.68 0.14 0 0.7 0.14 0 
0.72 0.14 0 0.74 0.14 0 0.76 0.14 0 
0.78 0.14 0 0.8 0.14 0 0.82 0.14 0 
0.84 0.14 0 0.86 0.14 0 0.88 0.14 0 
0.9 0.14 0 0.92 0.14 0 0.94 0.14 0 
0.96 0.14 0 0.98 0.14 0 1 0.14 0 
0 0.16 0 0.02 0.16 0 0.04 0.16 0 
0.06 0.16 0 0.08 0.16 0 0.1 0.16 0 
0.12 0.16 0 0.14 0.16 0 0.16 0.16 0 
0.18 0.16 0 0.2 0.16 0 0.22 0.16 0 
0.24 0.16 0 0.26 0.16 0 0.28 0.16 0 
0.3 0.16 0 0.32 0.16 0 0.34 0.16 0 
0.36 0.16 0 0.38 0.16 0 0.4 0.16 0 
0.42 0.16 0 0.44 0.16 0 0.46 0.16 0 
0.48 0.16 0 0.5 0.16 0 0.52 0.16 0 
0.54 0.16 0 0.56 0.16 0 0.58 0.16 0 
0.6 0.16 0 0.62 0.16 0 0.64 0.16 0 
0.66 0.16 0 0.68 0.16 0 0.7 0.16 0 
0.72 0.16 0 0.74 0.16 0 0.76 0.16 0 
0.78 0.16 0 0.8 0.16 0 0.82 0.16 0 
0.84 0.16 0 0.86 0.16 0 0.88 0.16 0 
0.9 0.16 0 0.92 0.16 0 0.94 0.16 0 
0.96 0.16 0 0.98 0.16 0 1 0.16 0 
0 0.18 0 0.02 0.18 0 0.04 0.18 0 
0.06 0.18 0 0.08 0.18 0 0.1 0.18 0 
0.12 0.18 0 0.14 0.18 0 0.16 0.18 0 
0.18 0.18 0 0.2 0.18 0 0.22 0.18 0 
0.24 0.18 0 0.26 0.18 0 0.28 0.18 0 
0.3 0.18 0 0.32 0.18 0 0.34 0.18 0 
0.36 0.18 0 0.38 0.18 0 0.4 0.18 0 
0.42 0.18 0 0.44 0.18 0 0.46 0.18 0 
0.48 0.18 0 0.5 0.18 0 0.52 0.18 0 
0.54 0.18 0 0.56 0.18 0 0.58 0.18 0 
0.6 0.18 0 0.62 0.18 0 0.64 0.18 0 
0.66 0.18 0 0.68 0.18 0 0.7 0.18 0 
0.72 0.18 0 0.74 0.18 0 0.76 0.18 0 
0.78 0.18 0 0.8 0.18 0 0.82 0.18 0 
0.84 0.18 0 0.86 0.18 0 0.88 0.18 0 
0.9 0.18 0 0.92 0.18 0 0.94 0.18 0 
0.96 0.18 0 0.98 0.18 0 1 0.18 0 
0 0.2 0 0.02 0.2 0 0.04 0.2 0 
0.06 0.2 0 0.08 0.2 0 0.1 0.2 0 
0.12 0.2 0 0.14 0.2 0 0.16 0.2 0 
0.18 0.2 0 0.2 0.2 0 0.22 0.2 0 
0.24 0.2 0 0.26 0.2 0 0.28 0.2 0 
0.3 0.2 0 0.32 0.2 0 0.34 0.2 0 
0.36 0.2 0 0.38 0.2 0 0.4 0.2 0 
0.42 0.2 0 0.44 0.2 0 0.46 0.2 0 
0.48 0.2 0 0.5 0.2 0 0.52 0.2 0 
0.54 0.2 0 0.56 0.2 0 0.58 0.2 0 
0.6 0.2 0 0.62 0.2 0 0.64 0.2 0 
0.66 0.2 0 0.68 0.2 0 0.7 0.2 0 
0.72 0.2 0 0.74 0.2 0 0.76 0.2 0 
0.78 0.2 0 0.8 0.2 0 0.82 0.2 0 
0.84 0.2 0 0.86 0.2 0 0.88 0.2 0 
0.9 0.2 0 0.92 0.2 0 0.94 0.2 0 
0.96 0.2 0 0.98 0.2 0 1 0.2 0 
0 0.22 0 0.02 0.22 0 0.04 0.22 0 
0.06 0.22 0 0.08 0.22 0 0.1 0.22 0 
0.12 0.22 0 0.14 0.22 0 0.16 0.22 0 
0.18 0.22 0 0.2 0.22 0 0.22 0.22 0 
0.24 0.22 0 0.26 0.22 0 0.28 0.22 0 
0.3 0.22 0 0.32 0.22 0 0.34 0.22 0 
0.36 0.22 0 0.38 0.22 0 0.4 0.22 0 
0.42 0.22 0 0.44 0.22 0 0.46 0.22 0 
0.48 0.22 0 0.5 0.22 0 0.52 0.22 0 
0.54 0.22 0 0.56 0.22 0 0.58 0.22 0 
0.6 0.22 0 0.62 0.22 0 0.64 0.22 0 
0.66 0.22 0 0.68 0.22 0 0.7 0.22 0 
0.72 0.22 0 0.74 0.22 0 0.76 0.22 0 
0.78 0.22 0 0.8 0.22 0 0.82 0.22 0 
0.84 0.22 0 0.86 0.22 0 0.88 0.22 0 
0.9 0.22 0 0.92 0.22 0 0.94 0.22 0 
0.96 0.22 0 0.98 0.22 0 1 0.22 0 
0 0.24 0 0.02 0.24 0 0.04 0.24 0 
0.06 0.24 0 0.08 0.24 0 0.1 0.24 0 
0.12 0.24 0 0.14 0.24 0 0.16 0.24 0 
0.18 0.24 0 0.2 0.24 0 0.22 0.24 0 
0.24 0.24 0 0.26 0.24 0 0.28 0.24 0 
0.3 0.24 0 0.32 0.24 0 0.34 0.24 0 
0.36 0.24 0 0.38 0.24 0 0.4 0.24 0 
0.42 0.24 0 0.44 0.24 0 0.46 0.24 0 
0.48 0.24 0 0.5 0.24 0 0.52 0.24 0 
0.54 0.24 0 0.56 0.24 0 0.58 0.24 0 
0.6 0.24 0 0.62 0.24 0 0.64 0.24 0 
0.66 0.24 0 0.68 0.24 0 0.7 0.24 0 
0.72 0.24 0 0.74 0.24 0 0.76 0.24 0 
0.78 0.24 0 0.8 0.24 0 0.82 0.24 0 
0.84 0.24 0 0.86 0.24 0 0.88 0.24 0 
0.9 0.24 0 0.92 0.24 0 0.94 0.24 0 
0.96 0.24 0 0.98 0.24 0 1 0.24 0 
0 0.26 0 0.02 0.26 0 0.04 0.26 0 
0.06 0.26 0 0.08 0.26 0 0.1 0.26 0 
0.12 0.26 0 0.14 0.26 0 0.16 0.26 0 
0.18 0.26 0 0.2 0.26 0 0.22 0.26 0 
0.24 0.26 0 0.26 0.26 0 0.28 0.26 0 
0.3 0.26 0 0.32 0.26 0 0.34 0.26 0 
0.36 0.26 0 0.38 0.26 0 0.4 0.26 0 
0.42 0.26 0 0.44 0.26 0 0.46 0.26 0 
0.48 0.26 0 0.5 0.26 0 0.52 0.26 0 
0.54 0.26 0 0.56 0.26 0 0.58 0.26 0 
0.6 0.26 0 0.62 0.26 0 0.64 0.26 0 
0.66 0.26 0 0.68 0.26 0 0.7 0.26 0 
0.72 0.26 0 0.74 0.26 0 0.76 0.26 0 
0.78 0.26 0 0.8 0.26 0 0.82 0.26 0 
0.84 0.26 0 0.86 0.26 0 0.88 0.26 0 
0.9 0.26 0 0.92 0.26 0 0.94 0.26 0 
0.96 0.26 0 0.98 0.26 0 1 0.26 0 
0 0.28 0 0.02 0.28 0 0.04 0.28 0 
0.06 0.28 0 0.08 0.28 0 0.1 0.28 0 
0.12 0.28 0 0.14 0.28 0 0.16 0.28 0 
0.18 0.28 0 0.2 0.28 0 0.22 0.28 0 
0.24 0.28 0 0.26 0.28 0 0.28 0.28 0 
0.3 0.28 0 0.32 0.28 0 0.34 0.28 0 
0.36 0.28 0 0.38 0.28 0 0.4 0.28 0 
0.42 0.28 0 0.44 0.28 0 0.46 0.28 0 
0.48 0.28 0 0.5 0.28 0 0.52 0.28 0 
0.54 0.28 0 0.56 0.28 0 0.58 0.28 0 
0.6 0.28 0 0.62 0.28 0 0.64 0.28 0 
0.66 0.28 0 0.68 0.28 0 0.7 0.28 0 
0.72 0.28 0 0.74 0.28 0 0.76 0.28 0 
0.78 0.28 0 0.8 0.28 0 0.82 0.28 0 
0.84 0.28 0 0.86 0.28 0 0.88 0.28 0 
0.9 0.28 0 0.92 0.28 0 0.94 0.28 0 
0.96 0.28 0 0.98 0.28 0 1 0.28 0 
0 0.3 0 0.02 0.3 0 0.04 0.3 0 
0.06 0.3 0 0.08 0.3 0 0.1 0.3 0 
0.12 0.3 0 0.14 0.3 0 0.16 0.3 0 
0.18 0.3 0 0.2 0.3 0 0.22 0.3 0 
0.24 0.3 0 0.26 0.3 0 0.28 0.3 0 
0.3 0.3 0 0.32 0.3 0 0.34 0.3 0 
0.36 0.3 0 0.38 0.3 0 0.4 0.3 0 
0.42 0.3 0 0.44 0.3 0 0.46 0.3 0 
0.48 0.3 0 0.5 0.3 0 0.52 0.3 0 
0.54 0.3 0 0.56 0.3 0 0.58 0.3 0 
0.6 0.3 0 0.62 0.3 0 0.64 0.3 0 
0.66 0.3 0 0.68 0.3 0 0.7 0.3 0 
0.72 0.3 0 0.74 0.3 0 0.76 0.3 0 
0.78 0.3 0 0.8 0.3 0 0.82 0.3 0 
0.84 0.3 0 0.86 0.3 0 0.88 0.3 0 
0.9 0.3 0 0.92 0.3 0 0.94 0.3 0 
0.96 0.3 0 0.98 0.3 0 1 0.3 0 
0 0.32 0 0.02 0.32 0 0.04 0.32 0 
0.06 0.32 0 0.08 0.32 0 0.1 0.32 0 
0.12 0.32 0 0.14 0.32 0 0.16 0.32 0 
0.18 0.32 0 0.2 0.32 0 0.22 0.32 0 
0.24 0.32 0 0.26 0.32 0 0.28 0.32 0 
0.3 0.32 0 0.32 0.32 0 0.34 0.32 0 
0.36 0.32 0 0.38 0.32 0 0.4 0.32 0 
0.42 0.32 0 0.44 0.32 0 0.46 0.32 0 
0.48 0.32 0 0.5 0.32 0 0.52 0.32 0 
0.54 0.32 0 0.56 0.32 0 0.58 0.32 0 
[...]
CELL_DATA 2500
FIELD FieldData 1
pressure 1 2500 double
0.0061839268273 0.0061199532456 0.0059303186731 0.0056537667954 0.0053320368327 0.0049998612246 0.0046833465398 0.0044008739228 0.0041646910521 
0.0039825231966 0.0038589781743 0.0037966764245 0.0037970917813 0.0038611067963 0.0039893040784 0.0041820386007 0.0044393546568 0.0047608150461 
0.0051452990417 0.0055908061618 0.0060942822259 0.006651469064 0.0072567731985 0.0079031503699 0.0085820067654 0.0092831173107 0.0099941989919 
0.010702061701 0.011392792748 0.012051871907 0.012664598476 0.013216619847 0.013694526264 0.014086477966 0.014382829275 0.014576712611 
0.014664545911 0.014646430726 0.014526415983 0.014312613671 0.014017166944 0.013656086558 0.013248985097 0.012818744559 0.01239114968 
0.011994388426 0.011658288792 0.011412392406 0.01128078738 0.011268380006 0.0062532281512 0.0061859453535 0.0060213695939 0.0057908999808 
0.0055250909852 0.0052500714356 0.0049863159937 0.0047489705468 0.0045488134455 0.0043933171836 0.0042875876787 0.004235109686 0.0042382839974 
0.0042987685615 0.0044176562796 0.0045955342755 0.0048324674664 0.0051279371451 0.0054807516691 0.0058889366782 0.0063496083817 0.0068588352303 
0.0074114987525 0.0080011703735 0.0086200256051 0.0092588231969 0.0099060043696 0.010549603634 0.011177054273 0.011775271347 0.012331068562 
0.012831644202 0.01326511778 0.013621091031 0.013891202234 0.014069640397 0.014153586026 0.014143548749 0.014043578805 0.013861339028 
0.013608035547 0.013298216633 0.012949457055 0.012581944359 0.01221796452 0.011881232594 0.011595873252 0.011384847972 0.011267322734 
0.011255962906 0.0064463197333 0.006345788335 0.0061781830506 0.005966539392 0.0057320478146 0.0054930548811 0.0052646121015 0.005058621698 
0.0048842518463 0.0047484168222 0.0046562363578 0.0046114351572 0.0046166620298 0.0046737269719 0.0047837689032 0.0049473671398 0.0051646002523 
0.0054350488283 0.005757739911 0.006131038411 0.0065524999495 0.0070187070734 0.0075251143951 0.0080659280192 0.0086340413604 0.0092210484077 
0.0098158574472 0.010407497797 0.010984425954 0.011534613611 0.01204594607 0.012506679672 0.012905943778 0.013234263885 0.013484076571 
0.013650203695 0.0137302532 0.013724917031 0.013638142905 0.013477165653 0.013252394483 0.012977162661 0.012667353486 0.012340917226 
0.012017284376 0.011716660218 0.011459158436 0.011263809286 0.011147666535 0.011126166115 0.0067280381753 0.0065742219446 0.006383250738 
0.0061690351309 0.0059449121505 0.0057231462942 0.0055145245016 0.0053281496838 0.0051713938501 0.005049996897 0.0049682741444 0.0049293729539 
0.0049355267232 0.0049882786065 0.0050886618849 0.0052373238634 0.0054345784548 0.0056803798349 0.0059742235443 0.0063149947225 0.0067007905868 
0.0071287453359 0.0075948817964 0.0080940081126 0.0086196717548 0.0091641808699 0.0097168138308 0.010267378202 0.010805074361 0.011318598007 
0.011796520816 0.012227732212 0.012601926388 0.012910110678 0.01314510543 0.013302001978 0.013378545 0.013375408303 0.013296339143 
0.013148155359 0.012940590502 0.012685993411 0.012398898261 0.01209548671 0.011792964924 0.011508877973 0.011260394428 0.011063651857 
0.010933374391 0.010883209276 0.0070618980178 0.0068433647113 0.006613927211 0.0063803948257 0.0061504480616 0.0059318782037 0.005731930201 
0.0055568461331 0.0054116623505 0.0053002443428 0.0052254725768 0.0051894807187 0.0051938812253 0.0052399486044 0.0053287450523 0.0054611751037 
0.0056379619116 0.0058595511754 0.0061259618718 0.0064366091934 0.0067901239485 0.0071841877266 0.007615397582 0.0080791693546 0.0085696868041 
0.0090799043895 0.0095994411639 0.010118661285 0.010627265317 0.011114378644 0.011568922839 0.011980053897 0.012337649315 0.012632818779 
0.012858407235 0.013009455316 0.013083581183 0.013081250192 0.013005904915 0.01286393782 0.012664500979 0.012419160648 0.012141417227 
0.011846121362 0.011548824341 0.011265106708 0.011009937512 0.01079713346 0.010639004747 0.010546207945 0.0074142527499 0.0071244440858 
0.0068464773648 0.0065826303836 0.0063365315329 0.0061122071341 0.005913396525 0.0057431770464 0.0056038949129 0.0054973004223 0.0054247571678 
0.0053874345173 0.005386447668 0.0054229395856 0.0054981033663 0.0056131427199 0.0057691748212 0.0059670893017 0.0062073818408 0.0064899786746 
0.0068140635966 0.0071779159113 0.0075787670802 0.0080126842073 0.0084744906761 0.0089577357518 0.0094523716457 0.0099490823792 0.010437856806 
0.010907997204 0.011348488747 0.011748442142 0.012097590499 0.012386814336 0.012608662031 0.012757828432 0.012831552548 0.012829897089 
0.012755878962 0.012615430312 0.012417183498 0.012172089385 0.011892894217 0.01159351426 0.011288357706 0.010991648468 0.010716805442 
0.010475919274 0.010279330356 0.010135191213 0.0077551043907 0.0073914094689 0.0070601234954 0.006760434489 0.0064924500701 0.0062565178749 
0.0060528378712 0.0058813709504 0.0057419533667 0.0056344793798 0.0055590518111 0.0055160665105 0.0055062386105 0.0055305842972 0.0055903625818 
0.0056869782763 0.0058218520724 0.0059962674386 0.0062112026443 0.0064671523062 0.0067639419041 0.0071005416473 0.007474890044 0.007883740423 
0.0083225455604 0.0087853950185 0.0092625901829 0.0097448961007 0.010222419755 0.010684436023 0.011119757419 0.01151718463 0.011866019362 
0.012156612957 0.012380916435 0.012532991852 0.012609441968 0.012609716533 0.012536259989 0.012394476572 0.01219250448 0.011940809307 
0.01165162594 0.011338295136 0.011014552798 0.010693833426 0.010388641069 0.010110015924 0.009867073309 0.0096665008888 0.0080592367519 
0.0076226110082 0.0072372477984 0.0068995342689 0.006606146033 0.0063539335362 0.0061399181907 0.0059614256851 0.0058162557681 0.0057028028181 
0.0056201020905 0.005567820332 0.0055462150421 0.0055560709153 0.0055986103068 0.0056753754456 0.0057880850643 0.0059384690429 0.0061280820906 
0.0063580968469 0.0066290811884 0.0069407708385 0.007291852518 0.0076797744021 0.0081005998256 0.0085489179068 0.0090154477949 0.0094908130607 
0.0099651177882 0.010427452889 0.010866264661 0.011269814547 0.011626712626 0.01192649783 0.012160228762 0.01232104183 0.012404629303 
0.012409590584 0.012337616157 0.012193475492 0.011984797526 0.011721653309 0.011415972554 0.011080845723 0.010729776749 0.010375954403 
0.010031598917 0.0097074110822 0.009412101321 0.0091519083243 0.0083061114176 0.0077996252642 0.0073612427751 0.0069845563837 0.0066631106043 
0.0063907702383 0.0061619683371 0.0059719088412 0.0058166912861 0.0056933553626 0.0055998738092 0.0055351219191 0.005498831481 0.0054915204147 
0.0055143887245 0.0055691795835 0.005658009257 0.0057831685988 0.005946896902 0.0061511313682 0.0063972417528 0.0066857647679 0.0070161543247 
0.0073865631394 0.0077936691943 0.0082325589127 0.0086945129942 0.009169814001 0.0096484876617 0.010119324449 0.0105702445 0.010988766986 
0.011362567548 0.011680096548 0.011931220526 0.012107840574 0.012204435857 0.012218479949 0.012150683013 0.012005024872 0.011788562566 
0.011511019343 0.011184187263 0.010821198755 0.010435738346 0.010041269758 0.009650341757 0.0092740063143 0.0089213363837 0.0085989746368 
0.008478117587 0.007905254524 0.0074152662647 0.0069992159291 0.0066480218645 0.0063530839858 0.0061066512489 0.0059020328787 0.0057337006575 
0.0055973302234 0.0054898149331 0.0054092590378 0.0053549374432 0.0053272082715 0.0053273759814 0.0053575125281 0.0054202448755 0.0055185133376 
0.0056553035383 0.0058333581544 0.0060548794799 0.0063212359852 0.0066326859503 0.0069881307175 0.0073849095726 0.0078186484899 0.0082814105362 
0.0087629594091 0.0092532059589 0.0097405591068 0.010212283532 0.010654976898 0.011055151846 0.01139989616 0.011677572943 0.011878512255 
0.011995638206 0.012024972949 0.011965962825 0.011821583393 0.011598199344 0.011305180658 0.010954304947 0.010559002762 0.010133522202 
0.0096920958282 0.0092481826082 0.0088138289209 0.0083991489253 0.0080118742942 0.0085587698009 0.0079227895848 0.0073828996741 0.0069280057239 
0.0065467346835 0.0062282353641 0.005962656307 0.0057414165209 0.0055573603108 0.0054048511814 0.0052798213672 0.0051797685172 0.0051036876141 
0.0050519380201 0.0050260580449 0.0050285420778 0.0050625897686 0.0051318308587 0.0052400282405 0.0053907649996 0.0055871240963 0.0058313701424 
0.0061246435151 0.0064666785014 0.0068555592076 0.0072875284525 0.0077557223738 0.0082492350971 0.0087578657788 0.0092696001646 0.0097709534838 
0.01024744982 0.010684225465 0.011066731772 0.011381500264 0.011616920201 0.011763968692 0.01181682793 0.01177332546 0.011635143374 
0.011407761431 0.011100126123 0.010724069625 0.01029353395 0.0098236802475 0.0093299744526 0.0088273335863 0.0083293906953 0.0078478944997 
0.007392211865 0.0085322051909 0.007836570656 0.0072492554515 0.0067571455981 0.0063465876691 0.0060044375558 0.00571870729 0.0054789523385 
0.0052765047969 0.0051046039404 0.0049584381282 0.0048350999266 0.0047334623347 0.0046539940793 0.0045985344922 0.0045700417928 0.0045723196941 
0.004609722502 0.0046868395733 0.004808162923 0.004977743614 0.005198843923 0.0054735950095 0.0058026734344 0.0061850139965 0.0066175804923 
0.0070949512593 0.0076054370926 0.0081387795392 0.0086825497132 0.009222462924 0.0097428505417 0.010227277674 0.010659286214 0.011023228907 
0.011305144807 0.011493612876 0.011580511043 0.01156160567 0.011436903498 0.011210715922 0.010891413354 0.010490882634 0.010023737348 
0.0095063622906 0.0089558916286 0.0083892192118 0.0078221172877 0.0072685001291 0.0067398221175 0.0083836816053 0.00763255622 0.007001115311 
0.0064741046884 0.0060354738567 0.0056697459016 0.0053628570521 0.0051026539228 0.0048791678212 0.0046847306226 0.0045139670155 0.0043636900098 
0.0042327270314 0.0041217019052 0.0040327897218 0.0039694509423 0.0039361442129 0.0039380159694 0.0039805670076 0.0040692984352 0.0042093407969 
0.0044050725749 0.0046597382983 0.0049750810021 0.0053510081699 0.0057853140697 0.0062745543414 0.0068061269819 0.00736985704 0.0079529718163 
0.0085403876478 0.0091151642157 0.0096591256848 0.010153637368 0.010580509429 0.010922980222 0.011166713864 0.011300732172 0.011318193502 
0.011216933483 0.010999697343 0.010674021103 0.010251757052 0.0097482822261 0.0091814690638 0.0085705257608 0.0079348221095 0.0072928012021 
0.0066610411765 0.0060534846395 0.00809997312 0.0072981552505 0.0066262744239 0.0060668049494 0.0056012926871 0.0052120238286 0.0048830253395 
0.0046006278919 0.0043537376328 0.0041339098469 0.0039352877732 0.003754453649 0.0035902263622 0.0034434271181 0.0033166221818 0.0032138435511 
0.0031402857156 0.0031019774091 0.0031054287847 0.0031572552167 0.003263779992 0.0034306212025 0.0036622724522 0.0039616914079 0.0043299145378 
0.0047657200751 0.0052681253519 0.0058237276514 0.0064226305722 0.0070518434004 0.0076955410121 0.0083354830432 0.008951620197 0.0095228914906 
0.010028192874 0.010447474531 0.010762901279 0.010959989851 0.011028622209 0.010963829467 0.010766250252 0.010442192554 0.010003268355 
0.0094656207585 0.008848815411 0.0081745105281 0.0074650421303 0.0067420566731 0.0060252928954 0.0053315683579 0.007669193636 0.0068217368334 
0.0061131254587 0.005523596658 0.0050324227349 0.0046198122577 0.0042680347972 0.0039620245942 0.0036896415934 0.0034417121299 0.0032119337399 
0.002996700128 0.0027948795776 0.0026075631748 0.0024377886554 0.0022902411825 0.0021709313787 0.0020868506799 0.0020456033901 0.0020550141728 
0.002122710816 0.0022556854603 0.002459841521 0.0027395375171 0.0030971440927 0.0035326434579 0.0040477161724 0.0046288105438 0.0052664886764 
0.0059477120405 0.0066560397234 0.0073719715838 0.0080735090564 0.0087369512414 0.0093379162518 0.0098525524246 0.010258876572 0.010538148714 
0.010676169004 0.010664368062 0.010500562487 0.010189267134 0.009741496273 0.0091740434465 0.0085082963057 0.0077687044126 0.0069810607763 
0.0061707703986 0.0053612583087 0.0045726235227 0.0070804728267 0.0061925173958 0.0054509407818 0.004833893672 0.0043185186254 0.0038830577831 
0.0035080984204 0.0031772258455 0.0028772897045 0.0025984287496 0.0023339521892 0.0020801386064 0.001835986633 0.0016029349115 0.0013845601071 
0.0011862575365 0.0010149059903 0.00087851529587 0.00078585259182 0.00074604233794 0.00076813679442 0.00086065727074 0.0010311100608 0.0012854835088 
0.0016277320143 0.0020592434525 0.0025843223584 0.0031906256681 0.0038691732358 0.0046071156477 0.0053876230274 0.0061900726308 0.0069905237195 
0.0077624831833 0.008477958882 0.0091087761976 0.0096281023954 0.010012087714 0.01024149702 0.010303178099 0.010191200113 0.0099075058572 
0.0094619588089 0.0088717301127 0.0081600537722 0.00735446534 0.0064847109887 0.0055805518517 0.0046696831382 0.0037759428012 0.0063239969416 
0.005400921104 0.0046304165542 0.0039886834902 0.0034508202249 0.0029931619249 0.0025946625609 0.0022376109171 0.001907910806 0.0015950907947 
0.0012921549987 0.00099534446939 0.00070385009168 0.00041950048142 0.00014643791196 -0.00010921205696 -0.00033967786546 -0.00053589173594 -0.00068786036959 
-0.00078506515276 -0.00081689801588 -0.00077313534937 -0.00064444845517 -0.00042294561415 -0.0001027417613 0.00031942387076 0.00084851228662 0.0014779609822 
0.0021976075514 0.0029953255264 0.003854291314 0.0047530261628 0.0056657655303 0.0065631631061 0.0074133459944 0.0081833164428 0.0088406597594 
0.0093554731872 0.0097023817964 0.009862462536 0.009824866621 0.0095879245674 0.0091595469488 0.0085568014983 0.007804648427 0.006933934625 
0.0059788585671 0.0049741932229 0.003952573568 0.0029421147873 0.0053913916876 0.00443898425 0.0036439207533 0.0029805412728 0.0024219764966 
0.0019427389563 0.0015202439347 0.0011355847655 0.00077381889033 0.00042395228321 7.8750201139e-05 -0.0002655440622 -0.00060953249463 -0.00095099875759 
-0.0012852431872 -0.0016054129727 -0.001902832314 -0.0021673424255 -0.0023876633053 -0.0025517886236 -0.0026474225236 -0.0026624635332 -0.0025855358671 
-0.0024065601935 -0.0021173378733 -0.0017120672145 -0.0011874931183 -0.00053939216102 0.0002191337113 0.0010774680877 0.0020193269034 0.0030227737509 
0.0040604714412 0.0051002832283 0.0061062851212 0.0070402162787 0.0078633517961 0.0085387275234 0.0090335825331 0.0093218189183 0.0093862228809 
0.0092201610611 0.0088284777883 0.008227383791 0.0074432453559 0.0065103397524 0.0054678064924 0.0043561535367 0.0032137359001 0.0020735943106 
0.0042760737568 0.0033004852867 0.0024854111955 0.0018034515666 0.0012259160602 0.00072565049776 0.00027867911299 -0.00013497567967 -0.00053101085726 
-0.00092088739976 -0.0013120576101 -0.0017082818656 -0.0021099776571 -0.0025145691363 -0.0029168237011 -0.0033091752975 -0.0036820425893 -0.0040241545845 
-0.0043228979524 -0.004564699905 -0.0047354587614 -0.0048210315713 -0.0048077839449 -0.0046832007613 -0.0044365467279 -0.00405955252 -0.0035471019964 
-0.0028889547523 -0.0020969495841 -0.0011799777447 -0.00015326553633 0.00096130563407 0.0021352296291 0.0033338019815 0.0045170233945 0.0056410410512 
0.0066601456419 0.0075292799867 0.00820693567 0.0086582239826 0.0088578201528 0.008792415472 0.0084622945837 0.007881706735 0.0070778304944 
0.0060883307073 0.0049577377661 0.0037330850559 0.0024593596843 0.0011753150378 0.0029733615804 0.0019808930917 0.0011503610802 0.00045284071892 
-0.00014195061698 -0.00066263100675 -0.0011344098774 -0.0015782304958 -0.0020104881047 -0.0024430947862 -0.0028837335581 -0.003336199235 -0.0038007635921 
-0.0042745313109 -0.004751773941 -0.0052242431379 -0.0056814728333 -0.0061110845103 -0.0064991120293 -0.0068303630872 -0.0070888337449 -0.0072581906211 
-0.007322332255 -0.0072660376759 -0.0070757099324 -0.0067402382872 -0.0062520858066 -0.0055946234427 -0.004777702673 -0.003807323626 -0.0026968820327 
-0.0014675144629 -0.00014830322062 0.0012239042108 0.0026052076718 0.0039460059499 0.0051930505015 0.0062921977516 0.007191763186 0.0078462643646 
0.0082202145222 0.0082915177393 0.0080539541581 0.0075182652492 0.0067114806332 0.0056743698095 0.0044572164162 0.0031144231865 0.0016986680924 
0.00025537109438 0.0014804607267 0.00047737989614 -0.00036411375284 -0.0010741721728 -0.001684404807 -0.0022246893157 -0.0027213316149 -0.0031961634146 
-0.0036662480522 -0.0041439524313 -0.0046372169634 -0.0051499126828 -0.0056822175373 -0.0062309755434 -0.0067900251025 -0.007350497721 -0.0079010974857 
-0.0084283772255 -0.0089170307475 -0.0093502221912 -0.0097099736405 -0.0099776307168 -0.01013442314 -0.010162133856 -0.010043887236 -0.0097650634514 
-0.0093143260121 -0.008673594222 -0.0078442078325 -0.0068293768251 -0.0056399991668 -0.0042956409544 -0.0028251612059 -0.0012668861377 0.00033180992296 
0.0019156618137 0.0034235254457 0.0047912978747 0.0059556966176 0.0068587080068 0.0074523456298 0.0077031902264 0.0075960545988 0.0071360844653 
0.0063487176346 0.0052772003873 0.0039777702104 0.0025130639253 0.00094466128251 -0.0006742043397 -0.000203490457 -0.0012110436916 -0.002059059277 
-0.0027785844545 -0.0034022868863 -0.0039611084225 -0.004482325346 -0.0049885892652 -0.0054976083482 -0.0060222163816 -0.0065706511871 -0.0071469224768 
-0.0077511946191 -0.0083801441389 -0.0090272763896 -0.0096832022365 -0.010335886108 -0.010970883721 -0.011571592232 -0.012119537832 -0.012594726238 
-0.012976080366 -0.013241986934 -0.013370969996 -0.013342503874 -0.01313797044 -0.012741766175 -0.012135718659 -0.01130940638 -0.010262898485 
-0.0090034911017 -0.0075481041476 -0.0059243317703 -0.004171042547 -0.0023383573195 -0.00048681025251 0.0013144901583 0.0029908303046 0.0044660161836 
0.005667516498 0.0065322729291 0.0070125859577 0.0070812682342 0.0067351382753 0.0059959851683 0.0049084250992 0.0035345823797 0.0019461554719 
0.00021498021126 -0.0015965344885 -0.0020773069791 -0.0030834208111 -0.003933638173 -0.0046595529444 -0.0052946085798 -0.0058706034745 -0.006415649594 
-0.0069531491375 -0.0075014422727 -0.00807386427 -0.0086790232807 -0.009321169843 -0.010000577212 -0.010713888501 -0.011454413209 -0.012212373701 
-0.012975114195 -0.013727292889 -0.014451082874 -0.015126410141 -0.015731257747 -0.016242064579 -0.016634245286 -0.016882854286 -0.016963408451 
-0.016852860102 -0.016530634084 -0.015979329218 -0.015175117363 -0.01411374302 -0.012797674708 -0.011239941198 -0.0094656123805 -0.0075128859597 
-0.0054335681344 -0.0032926943834 -0.0011670274648 0.00085779439519 0.0026915886003 0.0042453933933 0.0054383657243 0.0062051909944 0.0065030548394 
0.0063169808895 0.0056622937882 0.0045832300502 0.0031473232091 0.0014360329161 -0.00046708025732 -0.0024888388868 -0.0041377105385 -0.0051369035298 
-0.0059852815965 -0.0067145951291 -0.0073587402895 -0.007950138337 -0.0085175968805 -0.0090852161011 -0.0096719905987 -0.010291838892 -0.010953864017 
-0.011662709373 -0.012418923712 -0.013219287699 -0.014057082481 -0.014922300051 -0.015801808507 -0.016679494238 -0.017536408667 -0.018350950253 
-0.01909911391 -0.019754840284 -0.020290496956 -0.020677522417 -0.020887261867 -0.020892024493 -0.020666414508 -0.020189133045 -0.019429518782 
-0.018374115586 -0.017019337547 -0.015373002524 -0.013456233993 -0.011305091127 -0.0089716607799 -0.006524293433 -0.0040466325074 -0.0016350960692 
0.00060545339473 0.0025679434428 0.0041510350237 0.0052681800499 0.0058567356439 0.0058856581624 0.0053600867481 0.0043212957475 0.0028411555882 
0.0010113269088 -0.0010713790494 -0.0033211879622 -0.0063794442985 -0.0073669613013 -0.0082099330404 -0.0089398067072 -0.0095905612054 -0.010194993997 
-0.010782488641 -0.011377836665 -0.01200076997 -0.012665936166 -0.013383117518 -0.014157553547 -0.014990276712 -0.015878409357 -0.016815398904 
-0.017791189032 -0.018792339155 -0.019802114524 -0.020800575606 -0.021764699189 -0.022668565933 -0.023483650409 -0.024179250541 -0.024723093912 
-0.025082159129 -0.025223755325 -0.025116930111 -0.024734402131 -0.024045166471 -0.023020223411 -0.021649029135 -0.019932900332 -0.017887500908 
-0.01554507541 -0.012956259413 -0.01019109283 -0.0073387972398 -0.0045058525467 -0.0018119468463 0.00061647896474 0.0026550719143 0.0041923040325 