# vtk DataFile Version 4.1
vtk output
ASCII
DATASET STRUCTURED_GRID
DIMENSIONS 51 51 1
POINTS 2601 float
0 0 0 0.02 0 0 0.04 0 0 
0.06 0 0 0.08 0 0 0.1 0 0 
0.12 0 0 0.14 0 0 0.16 0 0 
0.18 0 0 0.2 0 0 0.22 0 0 
0.24 0 0 0.26 0 0 0.28 0 0 
0.3 0 0 0.32 0 0 0.34 0 0 
0.36 0 0 0.38 0 0 0.4 0 0 
0.42 0 0 0.44 0 0 0.46 0 0 
0.48 0 0 0.5 0 0 0.52 0 0 
0.54 0 0 0.56 0 0 0.58 0 0 
0.6 0 0 0.62 0 0 0.64 0 0 
0.66 0 0 0.68 0 0 0.7 0 0 
0.72 0 0 0.74 0 0 0.76 0 0 
0.78 0 0 0.8 0 0 0.82 0 0 
0.84 0 0 0.86 0 0 0.88 0 0 
0.9 0 0 0.92 0 0 0.94 0 0 
0.96 0 0 0.98 0 0 1 0 0 
0 0.02 0 0.02 0.02 0 0.04 0.02 0 
0.06 0.02 0 0.08 0.02 0 0.1 0.02 0 
0.12 0.02 0 0.14 0.02 0 0.16 0.02 0 
0.18 0.02 0 0.2 0.02 0 0.22 0.02 0 
0.24 0.02 0 0.26 0.02 0 0.28 0.02 0 
0.3 0.02 0 0.32 0.02 0 0.34 0.02 0 
0.36 0.02 0 0.38 0.02 0 0.4 0.02 0 
0.42 0.02 0 0.44 0.02 0 0.46 0.02 0 
0.48 0.02 0 0.5 0.02 0 0.52 0.02 0 
0.54 0.02 0 0.56 0.02 0 0.58 0.02 0 
0.6 0.02 0 0.62 0.02 0 0.64 0.02 0 
0.66 0.02 0 0.68 0.02 0 0.7 0.02 0 
0.72 0.02 0 0.74 0.02 0 0.76 0.02 0 
0.78 0.02 0 0.8 0.02 0 0.82 0.02 0 
0.84 0.02 0 0.86 0.02 0 0.88 0.02 0 
0.9 0.02 0 0.92 0.02 0 0.94 0.02 0 
0.96 0.02 0 0.98 0.02 0 1 0.02 0 
0 0.04 0 0.02 0.04 0 0.04 0.04 0 
0.06 0.04 0 0.08 0.04 0 0.1 0.04 0 
0.12 0.04 0 0.14 0.04 0 0.16 0.04 0 
0.18 0.04 0 0.2 0.04 0 0.22 0.04 0 
0.24 0.04 0 0.26 0.04 0 0.28 0.04 0 
0.3 0.04 0 0.32 0.04 0 0.34 0.04 0 
0.36 0.04 0 0.38 0.04 0 0.4 0.04 0 
0.42 0.04 0 0.44 0.04 0 0.46 0.04 0 
0.48 0.04 0 0.5 0.04 0 0.52 0.04 0 
0.54 0.04 0 0.56 0.04 0 0.58 0.04 0 
0.6 0.04 0 0.62 0.04 0 0.64 0.04 0 
0.66 0.04 0 0.68 0.04 0 0.7 0.04 0 
0.72 0.04 0 0.74 0.04 0 0.76 0.04 0 
0.78 0.04 0 0.8 0.04 0 0.82 0.04 0 
0.84 0.04 0 0.86 0.04 0 0.88 0.04 0 
0.9 0.04 0 0.92 0.04 0 0.94 0.04 0 
0.96 0.04 0 0.98 0.04 0 1 0.04 0 
0 0.06 0 0.02 0.06 0 0.04 0.06 0 
0.06 0.06 0 0.08 0.06 0 0.1 0.06 0 
0.12 0.06 0 0.14 0.06 0 0.16 0.06 0 
0.18 0.06 0 0.2 0.06 0 0.22 0.06 0 
0.24 0.06 0 0.26 0.06 0 0.28 0.06 0 
0.3 0.06 0 0.32 0.06 0 0.34 0.06 0 
0.36 0.06 0 0.38 0.06 0 0.4 0.06 0 
0.42 0.06 0 0.44 0.06 0 0.46 0.06 0 
0.48 0.06 0 0.5 0.06 0 0.52 0.06 0 
0.54 0.06 0 0.56 0.06 0 0.58 0.06 0 
0.6 0.06 0 0.62 0.06 0 0.64 0.06 0 
0.66 0.06 0 0.68 0.06 0 0.7 0.06 0 
0.72 0.06 0 0.74 0.06 0 0.76 0.06 0 
0.78 0.06 0 0.8 0.06 0 0.82 0.06 0 
0.84 0.06 0 0.86 0.06 0 0.88 0.06 0 
0.9 0.06 0 0.92 0.06 0 0.94 0.06 0 
0.96 0.06 0 0.98 0.06 0 1 0.06 0 
0 0.08 0 0.02 0.08 0 0.04 0.08 0 
0.06 0.08 0 0.08 0.08 0 0.1 0.08 0 
0.12 0.08 0 0.14 0.08 0 0.16 0.08 0 
0.18 0.08 0 0.2 0.08 0 0.22 0.08 0 
0.24 0.08 0 0.26 0.08 0 0.28 0.08 0 
0.3 0.08 0 0.32 0.08 0 0.34 0.08 0 
0.36 0.08 0 0.38 0.08 0 0.4 0.08 0 
0.42 0.08 0 0.44 0.08 0 0.46 0.08 0 
0.48 0.08 0 0.5 0.08 0 0.52 0.08 0 
0.54 0.08 0 0.56 0.08 0 0.58 0.08 0 
0.6 0.08 0 0.62 0.08 0 0.64 0.08 0 
0.66 0.08 0 0.68 0.08 0 0.7 0.08 0 
0.72 0.08 0 0.74 0.08 0 0.76 0.08 0 
0.78 0.08 0 0.8 0.08 0 0.82 0.08 0 
0.84 0.08 0 0.86 0.08 0 0.88 0.08 0 
0.9 0.08 0 0.92 0.08 0 0.94 0.08 0 
0.96 0.08 0 0.98 0.08 0 1 0.08 0 
0 0.1 0 0.02 0.1 0 0.04 0.1 0 
0.06 0.1 0 0.08 0.1 0 0.1 0.1 0 
0.12 0.1 0 0.14 0.1 0 0.16 0.1 0 
0.18 0.1 0 0.2 0.1 0 0.22 0.1 0 
0.24 0.1 0 0.26 0.1 0 0.28 0.1 0 
0.3 0.1 0 0.32 0.1 0 0.34 0.1 0 
0.36 0.1 0 0.38 0.1 0 0.4 0.1 0 
0.42 0.1 0 0.44 0.1 0 0.46 0.1 0 
0.48 0.1 0 0.5 0.1 0 0.52 0.1 0 
0.54 0.1 0 0.56 0.1 0 0.58 0.1 0 
0.6 0.1 0 0.62 0.1 0 0.64 0.1 0 
0.66 0.1 0 0.68 0.1 0 0.7 0.1 0 
0.72 0.1 0 0.74 0.1 0 0.76 0.1 0 
0.78 0.1 0 0.8 0.1 0 0.82 0.1 0 
0.84 0.1 0 0.86 0.1 0 0.88 0.1 0 
0.9 0.1 0 0.92 0.1 0 0.94 0.1 0 
0.96 0.1 0 0.98 0.1 0 1 0.1 0 
0 0.12 0 0.02 0.12 0 0.04 0.12 0 
0.06 0.12 0 0.08 0.12 0 0.1 0.12 0 
0.12 0.12 0 0.14 0.12 0 0.16 0.12 0 
0.18 0.12 0 0.2 0.12 0 0.22 0.12 0 
0.24 0.12 0 0.26 0.12 0 0.28 0.12 0 
0.3 0.12 0 0.32 0.12 0 0.34 0.12 0 
0.36 0.12 0 0.38 0.12 0 0.4 0.12 0 
0.42 0.12 0 0.44 0.12 0 0.46 0.12 0 
0.48 0.12 0 0.5 0.12 0 0.52 0.12 0 
0.54 0.12 0 0.56 0.12 0 0.58 0.12 0 
0.6 0.12 0 0.62 0.12 0 0.64 0.12 0 
0.66 0.12 0 0.68 0.12 0 0.7 0.12 0 
0.72 0.12 0 0.74 0.12 0 0.76 0.12 0 
0.78 0.12 0 0.8 0.12 0 0.82 0.12 0 
0.84 0.12 0 0.86 0.12 0 0.88 0.12 0 
0.9 0.12 0 0.92 0.12 0 0.94 0.12 0 
0.96 0.12 0 0.98 0.12 0 1 0.12 0 
0 0.14 0 0.02 0.14 0 0.04 0.14 0 
0.06 0.14 0 0.08 0.14 0 0.1 0.14 0 
0.12 0.14 0 0.14 0.14 0 0.16 0.14 0 
0.18 0.14 0 0.2 0.14 0 0.22 0.14 0 
0.24 0.14 0 0.26 0.14 0 0.28 0.14 0 
0.3 0.14 0 0.32 0.14 0 0.34 0.14 0 
0.36 0.14 0 0.38 0.14 0 0.4 0.14 0 
0.42 0.14 0 0.44 0.14 0 0.46 0.14 0 
0.48 0.14 0 0.5 0.14 0 0.52 0.14 0 
0.54 0.14 0 0.56 0.14 0 0.58 0.14 0 
0.6 0.14 0 0.62 0.14 0 0.64 0.14 0 
0.66 0.14 0 0.68 0.14 0 0.7 0.14 0 
0.72 0.14 0 0.74 0.14 0 0.76 0.14 0 
0.78 0.14 0 0.8 0.14 0 0.82 0.14 0 
0.84 0.14 0 0.86 0.14 0 0.88 0.14 0 
0.9 0.14 0 0.92 0.14 0 0.94 0.14 0 
0.96 0.14 0 0.98 0.14 0 1 0.14 0 
0 0.16 0 0.02 0.16 0 0.04 0.16 0 
0.06 0.16 0 0.08 0.16 0 0.1 0.16 0 
0.12 0.16 0 0.14 0.16 0 0.16 0.16 0 
0.18 0.16 0 0.2 0.16 0 0.22 0.16 0 
0.24 0.16 0 0.26 0.16 0 0.28 0.16 0 
0.3 0.16 0 0.32 0.16 0 0.34 0.16 0 
0.36 0.16 0 0.38 0.16 0 0.4 0.16 0 
0.42 0.16 0 0.44 0.16 0 0.46 0.16 0 
0.48 0.16 0 0.5 0.16 0 0.52 0.16 0 
0.54 0.16 0 0.56 0.16 0 0.58 0.16 0 
0.6 0.16 0 0.62 0.16 0 0.64 0.16 0 
0.66 0.16 0 0.68 0.16 0 0.7 0.16 0 
0.72 0.16 0 0.74 0.16 0 0.76 0.16 0 
0.78 0.16 0 0.8 0.16 0 0.82 0.16 0 
0.84 0.16 0 0.86 0.16 0 0.88 0.16 0 
0.9 0.16 0 0.92 0.16 0 0.94 0.16 0 
0.96 0.16 0 0.98 0.16 0 1 0.16 0 
0 0.18 0 0.02 0.18 0 0.04 0.18 0 
0.06 0.18 0 0.08 0.18 0 0.1 0.18 0 
0.12 0.18 0 0.14 0.18 0 0.16 0.18 0 
0.18 0.18 0 0.2 0.18 0 0.22 0.18 0 
0.24 0.18 0 0.26 0.18 0 0.28 0.18 0 
0.3 0.18 0 0.32 0.18 0 0.34 0.18 0 
0.36 0.18 0 0.38 0.18 0 0.4 0.18 0 
0.42 0.18 0 0.44 0.18 0 0.46 0.18 0 
0.48 0.18 0 0.5 0.18 0 0.52 0.18 0 
0.54 0.18 0 0.56 0.18 0 0.58 0.18 0 
0.6 0.18 0 0.62 0.18 0 0.64 0.18 0 
0.66 0.18 0 0.68 0.18 0 0.7 0.18 0 
0.72 0.18 0 0.74 0.18 0 0.76 0.18 0 
0.78 0.18 0 0.8 0.18 0 0.82 0.18 0 
0.84 0.18 0 0.86 0.18 0 0.88 0.18 0 
0.9 0.18 0 0.92 0.18 0 0.94 0.18 0 
0.96 0.18 0 0.98 0.18 0 1 0.18 0 
0 0.2 0 0.02 0.2 0 0.04 0.2 0 
0.06 0.2 0 0.08 0.2 0 0.1 0.2 0 
0.12 0.2 0 0.14 0.2 0 0.16 0.2 0 
0.18 0.2 0 0.2 0.2 0 0.22 0.2 0 
0.24 0.2 0 0.26 0.2 0 0.28 0.2 0 
0.3 0.2 0 0.32 0.2 0 0.34 0.2 0 
0.36 0.2 0 0.38 0.2 0 0.4 0.2 0 
0.42 0.2 0 0.44 0.2 0 0.46 0.2 0 
0.48 0.2 0 0.5 0.2 0 0.52 0.2 0 
0.54 0.2 0 0.56 0.2 0 0.58 0.2 0 
0.6 0.2 0 0.62 0.2 0 0.64 0.2 0 
0.66 0.2 0 0.68 0.2 0 0.7 0.2 0 
0.72 0.2 0 0.74 0.2 0 0.76 0.2 0 
0.78 0.2 0 0.8 0.2 0 0.82 0.2 0 
0.84 0.2 0 0.86 0.2 0 0.88 0.2 0 
0.9 0.2 0 0.92 0.2 0 0.94 0.2 0 
0.96 0.2 0 0.98 0.2 0 1 0.2 0 
0 0.22 0 0.02 0.22 0 0.04 0.22 0 
0.06 0.22 0 0.08 0.22 0 0.1 0.22 0 
0.12 0.22 0 0.14 0.22 0 0.16 0.22 0 
0.18 0.22 0 0.2 0.22 0 0.22 0.22 0 
0.24 0.22 0 0.26 0.22 0 0.28 0.22 0 
0.3 0.22 0 0.32 0.22 0 0.34 0.22 0 
0.36 0.22 0 0.38 0.22 0 0.4 0.22 0 
0.42 0.22 0 0.44 0.22 0 0.46 0.22 0 
0.48 0.22 0 0.5 0.22 0 0.52 0.22 0 
0.54 0.22 0 0.56 0.22 0 0.58 0.22 0 
0.6 0.22 0 0.62 0.22 0 0.64 0.22 0 
0.66 0.22 0 0.68 0.22 0 0.7 0.22 0 
0.72 0.22 0 0.74 0.22 0 0.76 0.22 0 
0.78 0.22 0 0.8 0.22 0 0.82 0.22 0 
0.84 0.22 0 0.86 0.22 0 0.88 0.22 0 
0.9 0.22 0 0.92 0.22 0 0.94 0.22 0 
0.96 0.22 0 0.98 0.22 0 1 0.22 0 
0 0.24 0 0.02 0.24 0 0.04 0.24 0 
0.06 0.24 0 0.08 0.24 0 0.1 0.24 0 
0.12 0.24 0 0.14 0.24 0 0.16 0.24 0 
0.18 0.24 0 0.2 0.24 0 0.22 0.24 0 
0.24 0.24 0 0.26 0.24 0 0.28 0.24 0 
0.3 0.24 0 0.32 0.24 0 0.34 0.24 0 
0.36 0.24 0 0.38 0.24 0 0.4 0.24 0 
0.42 0.24 0 0.44 0.24 0 0.46 0.24 0 
0.48 0.24 0 0.5 0.24 0 0.52 0.24 0 
0.54 0.24 0 0.56 0.24 0 0.58 0.24 0 
0.6 0.24 0 0.62 0.24 0 0.64 0.24 0 
0.66 0.24 0 0.68 0.24 0 0.7 0.24 0 
0.72 0.24 0 0.74 0.24 0 0.76 0.24 0 
0.78 0.24 0 0.8 0.24 0 0.82 0.24 0 
0.84 0.24 0 0.86 0.24 0 0.88 0.24 0 
0.9 0.24 0 0.92 0.24 0 0.94 0.24 0 
0.96 0.24 0 0.98 0.24 0 1 0.24 0 
0 0.26 0 0.02 0.26 0 0.04 0.26 0 
0.06 0.26 0 0.08 0.26 0 0.1 0.26 0 
0.12 0.26 0 0.14 0.26 0 0.16 0.26 0 
0.18 0.26 0 0.2 0.26 0 0.22 0.26 0 
0.24 0.26 0 0.26 0.26 0 0.28 0.26 0 
0.3 0.26 0 0.32 0.26 0 0.34 0.26 0 
0.36 0.26 0 0.38 0.26 0 0.4 0.26 0 
0.42 0.26 0 0.44 0.26 0 0.46 0.26 0 
0.48 0.26 0 0.5 0.26 0 0.52 0.26 0 
0.54 0.26 0 0.56 0.26 0 0.58 0.26 0 
0.6 0.26 0 0.62 0.26 0 0.64 0.26 0 
0.66 0.26 0 0.68 0.26 0 0.7 0.26 0 
0.72 0.26 0 0.74 0.26 0 0.76 0.26 0 
0.78 0.26 0 0.8 0.26 0 0.82 0.26 0 
0.84 0.26 0 0.86 0.26 0 0.88 0.26 0 
0.9 0.26 0 0.92 0.26 0 0.94 0.26 0 
0.96 0.26 0 0.98 0.26 0 1 0.26 0 
0 0.28 0 0.02 0.28 0 0.04 0.28 0 
0.06 0.28 0 0.08 0.28 0 0.1 0.28 0 
0.12 0.28 0 0.14 0.28 0 0.16 0.28 0 
0.18 0.28 0 0.2 0.28 0 0.22 0.28 0 
0.24 0.28 0 0.26 0.28 0 0.28 0.28 0 
0.3 0.28 0 0.32 0.28 0 0.34 0.28 0 
0.36 0.28 0 0.38 0.28 0 0.4 0.28 0 
0.42 0.28 0 0.44 0.28 0 0.46 0.28 0 
0.48 0.28 0 0.5 0.28 0 0.52 0.28 0 
0.54 0.28 0 0.56 0.28 0 0.58 0.28 0 
0.6 0.28 0 0.62 0.28 0 0.64 0.28 0 
0.66 0.28 0 0.68 0.28 0 0.7 0.28 0 
0.72 0.28 0 0.74 0.28 0 0.76 0.28 0 
0.78 0.28 0 0.8 0.28 0 0.82 0.28 0 
0.84 0.28 0 0.86 0.28 0 0.88 0.28 0 
0.9 0.28 0 0.92 0.28 0 0.94 0.28 0 
0.96 0.28 0 0.98 0.28 0 1 0.28 0 
0 0.3 0 0.02 0.3 0 0.04 0.3 0 
0.06 0.3 0 0.08 0.3 0 0.1 0.3 0 
0.12 0.3 0 0.14 0.3 0 0.16 0.3 0 
0.18 0.3 0 0.2 0.3 0 0.22 0.3 0 
0.24 0.3 0 0.26 0.3 0 0.28 0.3 0 
0.3 0.3 0 0.32 0.3 0 0.34 0.3 0 
0.36 0.3 0 0.38 0.3 0 0.4 0.3 0 
0.42 0.3 0 0.44 0.3 0 0.46 0.3 0 
0.48 0.3 0 0.5 0.3 0 0.52 0.3 0 
0.54 0.3 0 0.56 0.3 0 0.58 0.3 0 
0.6 0.3 0 0.62 0.3 0 0.64 0.3 0 
0.66 0.3 0 0.68 0.3 0 0.7 0.3 0 
0.72 0.3 0 0.74 0.3 0 0.76 0.3 0 
0.78 0.3 0 0.8 0.3 0 0.82 0.3 0 
0.84 0.3 0 0.86 0.3 0 0.88 0.3 0 
0.9 0.3 0 0.92 0.3 0 0.94 0.3 0 
0.96 0.3 0 0.98 0.3 0 1 0.3 0 
0 0.32 0 0.02 0.32 0 0.04 0.32 0 
0.06 0.32 0 0.08 0.32 0 0.1 0.32 0 
0.12 0.32 0 0.14 0.32 0 0.16 0.32 0 
0.18 0.32 0 0.2 0.32 0 0.22 0.32 0 
0.24 0.32 0 0.26 0.32 0 0.28 0.32 0 
0.3 0.32 0 0.32 0.32 0 0.34 0.32 0 
0.36 0.32 0 0.38 0.32 0 0.4 0.32 0 
0.42 0.32 0 0.44 0.32 0 0.46 0.32 0 
0.48 0.32 0 0.5 0.32 0 0.52 0.32 0 
0.54 0.32 0 0.56 0.32 0 0.58 0.32 0 
[...]
CELL_DATA 2500
FIELD FieldData 1
pressure 1 2500 double
0.0061776023034 0.0061157914387 0.0059287948193 0.0056533524633 0.0053319416592 0.0050004249054 0.0046851038647 0.0044037001614 0.0041677683969 
0.0039848696306 0.0038599463768 0.003796132665 0.0037953430593 0.0038587274656 0.0039869316958 0.0041801720851 0.0044382187062 0.0047603509748 
0.0051452699569 0.0055909370371 0.0060943583974 0.0066513701066 0.0072564626421 0.0079026491614 0.0085813660747 0.0092823957506 0.009993446328 
0.010701310011 0.011392055847 0.012051150976 0.012663889658 0.013215919294 0.013693830879 0.014085783833 0.014382131168 0.014576006438 
0.014663832896 0.014645719906 0.014525722421 0.014311953243 0.014016551094 0.01365551977 0.013248465492 0.012818266112 0.012390704411 
0.011993967857 0.01165788468 0.011411997043 0.011280393828 0.011267983193 0.0062495604689 0.0061856639411 0.0060222810237 0.0057915037386 
0.005525367784 0.0052504216255 0.0049867005217 0.0047489350042 0.0045479735348 0.0043916617494 0.0042854196177 0.0042328393718 0.0042362807987 
0.0042972886315 0.004416793155 0.0045951983917 0.0048324360452 0.0051279632047 0.0054806619684 0.0058886630703 0.006349159714 0.0068582538298 
0.0074108326728 0.0080004633312 0.0086193133914 0.0092581296528 0.0099053382659 0.010548959162 0.011176417501 0.011774628908 0.012330413419 
0.012830975647 0.013264437654 0.01362040063 0.013890502736 0.014068936129 0.014152887065 0.014142869519 0.014042933064 0.013860735 
0.013607474335 0.013297694086 0.012948967001 0.012581480943 0.012217522926 0.011880808646 0.011595462761 0.011384446155 0.011266924217 
0.011255562062 0.0064475922786 0.0063483601509 0.0061793967627 0.0059660900404 0.0057306404896 0.0054910491335 0.0052619253459 0.005055293582 
0.0048807305408 0.0047453305588 0.0046540278222 0.0046102109513 0.0046162635003 0.004673853468 0.0047840677582 0.0049475171017 0.0051644029979 
0.0054344784866 0.0057569068955 0.0061300962009 0.0065515659236 0.0070178384121 0.0075243257462 0.0080652159265 0.0086333955135 0.0092204515312 
0.0098152846566 0.010406921254 0.010983824202 0.011533978403 0.012045281707 0.012505996301 0.012905250693 0.013233567488 0.013483382964 
0.013649522111 0.013729595857 0.013724294584 0.013637559526 0.013476618094 0.013251875432 0.01297666538 0.0126668745 0.012340455993 
0.012016841264 0.011716234571 0.011458747652 0.011263408725 0.011147270258 0.011125767387 0.0067324822028 0.0065765924358 0.006382464546 
0.0061663593253 0.0059415166654 0.0057194152055 0.0055106152291 0.0053245105798 0.0051686404547 0.0050484884958 0.0049679132639 0.004929738887 
0.0049361185809 0.004988675093 0.0050885906305 0.0052366991273 0.0054335043863 0.0056790830728 0.0059729346319 0.0063138542524 0.0066998326747 
0.0071279410513 0.0075941889145 0.008093393101 0.0086191068474 0.0091636359489 0.0097162570895 0.010266784876 0.010804435874 0.011317922756 
0.011795826088 0.01222703411 0.012601234889 0.012909431332 0.01314444393 0.013301366296 0.01337794243 0.013374840408 0.013295800285 
0.013147636488 0.012940084823 0.012685499622 0.012398419604 0.012095027452 0.011792527223 0.011508460716 0.011259993635 0.011063261793 
0.010932988674 0.010882821312 0.0070658296813 0.0068432334343 0.0066109385758 0.0063767195522 0.0061470958712 0.0059289734663 0.0057295369043 
0.005555230277 0.0054110053824 0.0053003814249 0.0052259622007 0.0051898590384 0.0051938437227 0.005239384811 0.0053277053918 0.0054598302224 
0.0056365415401 0.0058582539627 0.0061248825612 0.0064357340838 0.0067893863404 0.007183527826 0.0076147848628 0.0080785900534 0.0085691243133 
0.0090793333675 0.0095988372028 0.010118013491 0.010626581552 0.011113678968 0.01156822744 0.01197937486 0.012336990443 0.012632180686 
0.012857791999 0.013008866422 0.013083019353 0.013080710574 0.01300537957 0.012863421223 0.01266399363 0.012418668201 0.012140946349 
0.011845675816 0.011548403664 0.011264707212 0.011009553851 0.010796759944 0.010638635795 0.010545838018 0.0074151918054 0.0071219817025 
0.0068431026137 0.0065801066077 0.0063350631025 0.0061113965112 0.0059129858153 0.0057430928625 0.0056040019271 0.0054973281734 0.0054244482218 
0.0053866948 0.0053853558367 0.0054216607428 0.005496809579 0.0056119714212 0.0057682007165 0.0059663060991 0.0062067184853 0.0064893515657 
0.006813426221 0.0071772690852 0.0075781324191 0.0080120723635 0.0084738896816 0.0089571215555 0.0094517273977 0.0099484092466 0.010437171841 
0.010907321289 0.011347835118 0.011747813018 0.012096981477 0.012386221069 0.012608083707 0.012757265968 0.012831004753 0.012829360266 
0.012755350557 0.0126149123 0.012416682189 0.012171611916 0.011892444657 0.011593092245 0.011287959703 0.010991269783 0.010716441384 
0.010475565543 0.010278982655 0.010134844926 0.007753274965 0.0073884080305 0.0070580461597 0.0067597839434 0.0064925990748 0.0062567712929 
0.0060528615359 0.0058810715253 0.0057412847213 0.0056334261647 0.0055577062316 0.0055146333822 0.0055049403425 0.0055295584105 0.0055896274226 
0.0056864600036 0.005821431102 0.0059958245745 0.0062106614388 0.0064665033841 0.0067632320205 0.0070998336657 0.0074742230725 0.007883115264 
0.0083219373099 0.0087847771748 0.0092619532804 0.0097442497794 0.010221782702 0.010683822111 0.01111916834 0.011516612249 0.011865453562 
0.012156048468 0.012380354308 0.012532435807 0.01260889463 0.01260917967 0.01253573684 0.01239397259 0.0121920255 0.011940358749 
0.011651203476 0.011337897776 0.011014176848 0.010693475585 0.010388298378 0.010109685369 0.0098667513126 0.009666183254 0.0080564521339 
0.0076204542737 0.007236516515 0.0068996899001 0.0066063352895 0.006353668304 0.0061391266681 0.0059602209255 0.0058147797514 0.0057012219916 
0.0056186289704 0.005566659788 0.0055454667454 0.0055556813058 0.0055984126825 0.0056751776628 0.0057877458854 0.0059379352303 0.00612738594 
0.0063573230152 0.0066283187297 0.0069400737435 0.0072912269694 0.0076791930115 0.0081000280179 0.0085483355505 0.00901485672 0.009490228489 
0.0099645539053 0.010426911986 0.010865736619 0.011269284848 0.011626171833 0.011925946262 0.012159674155 0.012320493196 0.012404093092 
0.01240907113 0.012337117244 0.012193000654 0.011984349058 0.01172123131 0.011415575282 0.011080470973 0.010729422732 0.010375619565 
0.010031281345 0.0097071081559 0.0094118096397 0.0091516240137 0.0083038016074 0.0077983495339 0.0073607956621 0.0069842031581 0.0066623816543 
0.0063896225694 0.0061605814831 0.0059704596339 0.0058152933505 0.0056921118552 0.0055989012491 0.0055344916929 0.0054984991246 0.0054913292001 
0.0055141509514 0.005568767838 0.0056573975089 0.0057824151892 0.0059460971212 0.0061503700077 0.0063965639354 0.0066851709775 0.0070156151976 
0.0073860425715 0.0077931437363 0.0082320256418 0.0086939845491 0.009169304233 0.0096479995768 0.010118847258 0.010569760881 0.010988264086 
0.011362043993 0.011679561709 0.011930687664 0.012107319859 0.012203932417 0.01221799586 0.012150219498 0.012004583182 0.011788143651 
0.011510623399 0.011183814003 0.010820847903 0.010435409548 0.010040962118 0.0096500535287 0.0092737349531 0.0089210787787 0.0085987274499 
0.0084765191935 0.0079041946786 0.0074143325538 0.0069980827679 0.0066467098038 0.0063517909165 0.0061055161796 0.0059010501139 0.0057328040227 
0.0055965042225 0.0054891037154 0.0054086861936 0.0053544464002 0.0053266909136 0.0053267517626 0.0053567778837 0.0054194593691 0.0055177512056 
0.0056546142577 0.0058327544465 0.0060543456075 0.0063207430682 0.0066322064388 0.0069876487437 0.0073844249419 0.0078181724839 0.0082809555482 
0.0087625274722 0.0092527855994 0.0097401315918 0.010211833862 0.010654501696 0.01105465966 0.011399401123 0.011677086729 0.011878040203 
0.011995181057 0.012024530335 0.011965535428 0.011821173225 0.011597808763 0.011304811515 0.010953958466 0.010558679636 0.010133222446 
0.0096918186769 0.0092479265407 0.0088135918175 0.0083989282399 0.0080116672244 0.0085574944612 0.0079215699107 0.0073815761528 0.0069266642912 
0.0065455872573 0.006227393466 0.0059620263991 0.0057407907167 0.0055565927613 0.0054039459413 0.0052788726421 0.0051788483927 0.005102802071 
0.0050510688969 0.005025216029 0.0050277686196 0.0050619193624 0.0051312627297 0.0052395315683 0.0053903025671 0.0055866700104 0.0058309138678 
0.0061241866091 0.0064662303506 0.0068551321033 0.0072871306763 0.0077553521461 0.0082488787789 0.0087575040935 0.0092692177167 0.0097705456125 
0.010247022871 0.010683791376 0.011066300928 0.011381077233 0.011616504758 0.011763559702 0.011816426066 0.011772933712 0.011634765917 
0.011407402091 0.01109978764 0.01072375376 0.010293241731 0.0098234120324 0.0093297299949 0.0088271120262 0.0083291905326 0.0078477136572 
0.0073920478593 0.0085310267645 0.0078353230847 0.0072479816021 0.0067560458863 0.0063457936391 0.0060038736467 0.0057181339177 0.0054781499385 
0.0052754251748 0.0051033627357 0.0049571917058 0.0048339451795 0.0047324327312 0.0046531061275 0.0045978068235 0.0045694727782 0.004571867809 
0.004609321689 0.0046864347935 0.0048077325296 0.0049772961099 0.0051984015107 0.0054731793283 0.0058022980823 0.0061846813588 0.0066172812538 
0.0070946680377 0.0076051505329 0.0081384758366 0.0086822245487 0.0092221204364 0.0097424987286 0.010226923269 0.010658931696 0.011022873124 
0.01130478629 0.01149325253 0.011580152499 0.011561254163 0.011436564236 0.011210393035 0.010891109823 0.0104906007 0.01002347875 
0.0095061282541 0.0089556827706 0.0083890353539 0.0078219573481 0.0072683622856 0.0067397041801 0.0083826752544 0.0076314779135 0.0070000164576 
0.0064731348027 0.0060346714476 0.0056689815137 0.005361941987 0.0051015035172 0.0048778576413 0.0046834139524 0.0045127634855 0.004362649919 
0.0042318642948 0.0041210217996 0.0040322771758 0.0039690526215 0.0039357832721 0.0039376317176 0.0039801423847 0.0040688556253 0.0042089171398 
0.0044046983717 0.0046594262701 0.0049748257425 0.0053507915104 0.0057851133804 0.0062743512884 0.0068059111875 0.0073696264803 0.0079527293574 
0.008540136968 0.0091149070853 0.0096588612162 0.010153363019 0.010580223289 0.010922683078 0.011166409373 0.011300425685 0.011317890733 
0.011216639513 0.010999416397 0.010673756821 0.010251512743 0.0097480607982 0.0091812727727 0.0085703559665 0.007934679091 0.0072926842167 
0.0066609487848 0.0060534151452 0.0080991882201 0.0072971742451 0.0066251309274 0.0060656534739 0.005600201826 0.0052109463847 0.0048818971061 
0.004599459825 0.0043526039748 0.0041328760508 0.0039343752342 0.0037536632429 0.0035895646747 0.003442894587 0.0033161874661 0.0032134475944 
0.0031398772989 0.0031015441749 0.0031049972262 0.0031568666399 0.0032634652747 0.0034303882594 0.0036621070906 0.0039615669527 0.0043298044593 
0.0047656074613 0.0052680050921 0.0058236016123 0.0064225014721 0.0070517110013 0.0076954018106 0.0083353319729 0.0089514525326 0.0095227042913 
0.010027986002 0.010447250709 0.010762665037 0.010959746462 0.011028377027 0.010963587632 0.010766016754 0.010441972293 0.010003065989 
0.0094654403359 0.0088486600495 0.0081743822225 0.0074649417391 0.0067419841168 0.0060252474295 0.0053315488534 0.007668472232 0.0068206415855 
0.0061117724838 0.0055222270388 0.0050311812908 0.0046187264737 0.0042670843041 0.0039611864859 0.0036888839065 0.0034409914746 0.0032112249849 
0.0029960191406 0.0027942621864 0.0026070230921 0.0024373037963 0.0022897799535 0.0021704855777 0.0020864427611 0.0020452681767 0.0020547754176 
0.0021225684273 0.0022556168714 0.0024598135803 0.0027395218073 0.00309712695 0.003532625485 0.0040477038407 0.0046288070645 0.0052664904149 
0.0059477104719 0.0066560254021 0.007371936967 0.0080734494232 0.0087368646818 0.0093378034951 0.0098524162507 0.010258720983 0.010537978508 
0.010675989563 0.010664185226 0.010500382431 0.010189096081 0.0097413400739 0.0091739071577 0.0085081839762 0.007768619 0.0069810041711 
0.0061707434977 0.0053612611104 0.0045726553392 0.0070796136316 0.0061912481468 0.0054494916619 0.0048325525936 0.0043174365506 0.0038822470204 
0.0035074862083 0.003176698115 0.0028767325285 0.0025977805768 0.0023332326525 0.0020794195405 0.0018353302147 0.0016023585246 0.0013840515962 
0.0011858100831 0.0010145337177 0.00087824242358 0.00078569356363 0.00074598952563 0.00076816165313 0.00086072299941 0.0010311883089 0.0012855646211 
0.0016278223837 0.0020593535533 0.0025844551962 0.0031907750057 0.0038693259977 0.0046072583244 0.0053877451918 0.0061901673813 0.0069905868523 
0.0077625126987 0.0084779549136 0.0091087406893 0.0096280387128 0.010012000503 0.010241392057 0.010303062061 0.010191080228 0.0099073894546 
0.0094618528684 0.0088716409042 0.008159986704 0.0073544247758 0.006484700086 0.0055805724472 0.0046697358333 0.0037760273489 0.0063229749622 
0.0053996275319 0.0046291019329 0.003987577315 0.0034500068 0.0029925944288 0.00259421014 0.0022371220163 0.0019072893199 0.0015943445994 
0.0012913730554 0.00099462196219 0.00070323190439 0.00041898444428 0.0001460127751 -0.00010954142815 -0.00033989466099 -0.00053598548288 -0.00068784052707 
-0.00078496153212 -0.00081674826605 -0.0007729670918 -0.00064426831487 -0.00042274294663 -0.00010250304613 0.00031970237536 0.0008488175149 0.0014782792423 
0.0021979215217 0.0029956223671 0.0038545621607 0.0047532644782 0.0056659663149 0.0065633231901 0.0074134644112 0.0081833942518 0.0088406998019 
0.009355479985 0.0097023613795 0.0098624221458 0.009824814306 0.0095878687397 0.0091594959527 0.0085567632026 0.0078046299124 0.0069339417616 
0.005978895694 0.004974263047 0.0039526773876 0.0029422530444 0.0053903536545 0.0044378402404 0.0036428361473 0.00297964451 0.0024212930855 
0.0019421967338 0.0015197139441 0.0011349584187 0.00077307941728 0.00042317734724 7.804192539e-05 -0.00026613115366 -0.00061000235101 -0.00095137387612 
-0.001285528246 -0.001605592224 -0.0019028893377 -0.0021672789274 -0.0023875037783 -0.0025515689871 -0.002647170545 -0.0026621854976 -0.0025852196836 
-0.002406191223 -0.0021169136361 -0.0017116003682 -0.0011870044258 -0.00053889978422 0.00021961577841 0.0010779297945 0.002019759764 0.0030231698539 
0.0040608240699 0.0051005878425 0.0061065396496 0.0070404208113 0.0078635084108 0.0085388402758 0.009033657365 0.0093218634211 0.0093862459187 
0.0092201723064 0.0088284871757 0.008227400901 0.0074432788975 0.00651039702 0.0054678930613 0.0043562732407 0.0032138910761 0.0020737863345 
0.0042751628844 0.0032995294197 0.0024844795728 0.0018026195573 0.0012252051478 0.00072501037492 0.00027802734858 -0.00013567713202 -0.00053171768405 
-0.00092151564646 -0.0013125580639 -0.00170866667 -0.0021102840766 -0.0025148125656 -0.0029169858791 -0.003309225758 -0.0036819660192 -0.0040239633315 
-0.0043226236858 -0.0045643719986 -0.0047350866149 -0.0048206047723 -0.0048072881342 -0.0046826340297 -0.0044359235758 -0.0040588956 -0.003546431901 
-0.0028882845907 -0.0020962900327 -0.001179338666 -0.00015265739888 0.00096187273462 0.0021357474177 0.0033342646963 0.0045174276436 0.0056413855363 
0.0066604312652 0.007529510056 0.0082071159253 0.0086583623817 0.0088579264256 0.0087925005318 0.0084623698206 0.0078817832648 0.0070779186023 
0.0060884392963 0.0049578740252 0.0037332543316 0.0024595655999 0.0011755599994 0.0029726013017 0.0019800564898 0.0011494855072 0.00045200897558 
-0.00014269553528 -0.00066331079025 -0.0011350621058 -0.0015788467625 -0.0020110159397 -0.0024434971088 -0.0028840284881 -0.0033364358055 -0.0038009690387 
-0.0042746872554 -0.0047518352598 -0.005224173466 -0.0056812676645 -0.0061107687599 -0.0064987173432 -0.0068299046032 -0.007088305153 -0.0072575786453 
-0.0073216346744 -0.0072652692109 -0.0070748942643 -0.0067393965362 -0.0062512315106 -0.0055937670779 -0.0047768544326 -0.00380649586 -0.0026960877229 
-0.0014667652968 -0.00014760869605 0.0012245368338 0.0026057732033 0.0039465014064 0.0051934755419 0.0062925549827 0.0071920581538 0.0078465052513 
0.0082204116236 0.0082916828439 0.008054099833 0.0075184041074 0.0067116247762 0.0056745301337 0.0044574020656 0.0031146412062 0.0016989234765 
0.00025566737016 0.0014797964849 0.00047661097579 -0.00036493219196 -0.0010749449721 -0.001685089254 -0.0022252979655 -0.0027218748916 -0.0031966166052 
-0.0036665835698 -0.004144185393 -0.0046373990622 -0.0051500821132 -0.0056823627678 -0.0062310447808 -0.0067899646832 -0.0073502855858 -0.0079007496028 
-0.0084279265191 -0.0089164986941 -0.0093496074132 -0.0097092636553 -0.0099768214923 -0.010133527715 -0.010161175678 -0.010042888056 -0.0097640373491 
-0.0093132821132 -0.0086725432488 -0.0078431630389 -0.0068283533923 -0.0056390116363 -0.0042947021217 -0.0028242820382 -0.0012660757695 0.00033254443994 
0.0019163160039 0.0034240979072 0.0047917904833 0.0059561144138 0.0068590588927 0.0074526399635 0.0077034403425 0.007596274176 0.00713628778 
0.0063489188525 0.0052774125825 0.0039780045666 0.0025133292456 0.00094496404532 -0.00067385931641 -0.00020408986259 -0.0012117216342 -0.0020597525267 
-0.0027792225309 -0.0034028524597 -0.0039616093113 -0.0044827486737 -0.0049889071464 -0.0054978213484 -0.0060223668943 -0.0065707844276 -0.0071470409607 
-0.0077512525021 -0.0083800804229 -0.0090270549359 -0.0096828286068 -0.010335391936 -0.010970295386 -0.011570912609 -0.012118754104 -0.012593830631 
-0.012975082265 -0.013240908288 -0.013369832903 -0.013341323197 -0.013136755613 -0.012740526706 -0.012134470216 -0.011308163301 -0.010261677798 
-0.0090023083317 -0.0075469733332 -0.0059232655355 -0.0041700517365 -0.0023374504409 -0.00048599296456 0.0013152153672 0.0029914641942 0.0044665627118 
0.0056679827669 0.0065326690429 0.0070129246864 0.0070815643727 0.0067354077644 0.0059962441742 0.0049086887966 0.0035348639862 0.0019464656661 
0.00021532715145 -0.0015961444902 -0.002077814397 -0.0030839553147 -0.0039341658922 -0.0046600505978 -0.0052950750835 -0.0058710235043 -0.0064159845109 
-0.0069533750943 -0.0075015809773 -0.0080739611396 -0.0086790981584 -0.0093211939445 -0.010000493699 -0.010713652974 -0.011454020232 -0.012211850242 
-0.012974489029 -0.013726572077 -0.014450252281 -0.015125456565 -0.015730185011 -0.01624089195 -0.016632994974 -0.016881542312 -0.016962045178 
-0.01685145573 -0.016529202068 -0.015977886156 -0.015173680397 -0.014112329534 -0.012796301 -0.011238622501 -0.0094643626393 -0.0075117171863 
-0.0054324898853 -0.0032917135049 -0.0011661479253 0.00085857172178 0.0026922662228 0.0042459774574 0.0054388659992 0.006205620538 0.0065034292896 
0.0063173174985 0.0056626104203 0.0045835438399 0.0031476494518 0.0014363843407 -0.00046669361104 -0.0024884090397 -0.0041380819388 -0.0051372751546 
-0.0059856644791 -0.0067149953041 -0.0073591409393 -0.0079504880685 -0.0085178436888 -0.0090853527133 -0.0096720536885 -0.010291862949 -0.010953842381 
-0.01166259762 -0.012418674667 -0.01321888492 -0.014056544942 -0.014921656408 -0.015801067818 -0.016678641521 -0.017535424724 -0.018349831814 
-0.01909787618 -0.019753505115 -0.020289081644 -0.020676038374 -0.02088571966 -0.020890437553 -0.020664799246 -0.020187507741 -0.019427899324 
-0.018372520502 -0.017017783891 -0.01537150638 -0.013454810084 -0.011303752223 -0.0089704174888 -0.0065231541019 -0.0040456028475 -0.0016341785727 
0.00060625996974 0.0025686443347 0.0041516394164 0.0052687007868 0.005857188606 0.0058860613917 0.0053604594793 0.0043216569541 0.0028415226834 
0.0010117147825 -0.0010709583607 -0.0033207247086 -0.0063796629689 -0.0073671903119 -0.0082102107412 -0.0089401327709 -0.0095908842818 -0.010195240743 
-0.010782620134 -0.011377871255 -0.01200074854 -0.012665872211 -0.013382981936 -0.014157299755 -0.014989877451 -0.015877872837 -0.016814751549 
-0.017790443896 -0.018791483005 -0.019801123513 -0.020799438625 -0.021763425774 -0.022667176509 -0.023482163293 -0.0241776781 -0.024721446854 
-0.025080450653 -0.025222001411 -0.025115148015 -0.024732608623 -0.024043381492 -0.023018464211 -0.021647312881 -0.019931243464 -0.01788591855 
-0.015543581037 -0.012954864776 -0.010189807616 -0.0073376284054 -0.0045048036748 -0.001811017796 0.00061729222765 0.0026557774013 0.004192913705 