# vtk DataFile Version 4.1
vtk output
ASCII
DATASET STRUCTURED_GRID
DIMENSIONS 51 51 1
POINTS 2601 float
0 0 0 0.02 0 0 0.04 0 0 
0.06 0 0 0.08 0 0 0.1 0 0 
0.12 0 0 0.14 0 0 0.16 0 0 
0.18 0 0 0.2 0 0 0.22 0 0 
0.24 0 0 0.26 0 0 0.28 0 0 
0.3 0 0 0.32 0 0 0.34 0 0 
0.36 0 0 0.38 0 0 0.4 0 0 
0.42 0 0 0.44 0 0 0.46 0 0 
0.48 0 0 0.5 0 0 0.52 0 0 
0.54 0 0 0.56 0 0 0.58 0 0 
0.6 0 0 0.62 0 0 0.64 0 0 
0.66 0 0 0.68 0 0 0.7 0 0 
0.72 0 0 0.74 0 0 0.76 0 0 
0.78 0 0 0.8 0 0 0.82 0 0 
0.84 0 0 0.86 0 0 0.88 0 0 
0.9 0 0 0.92 0 0 0.94 0 0 
0.96 0 0 0.98 0 0 1 0 0 
0 0.02 0 0.02 0.02 0 0.04 0.02 0 
0.06 0.02 0 0.08 0.02 0 0.1 0.02 0 
0.12 0.02 0 0.14 0.02 0 0.16 0.02 0 
0.18 0.02 0 0.2 0.02 0 0.22 0.02 0 
0.24 0.02 0 0.26 0.02 0 0.28 0.02 0 
0.3 0.02 0 0.32 0.02 0 0.34 0.02 0 
0.36 0.02 0 0.38 0.02 0 0.4 0.02 0 
0.42 0.02 0 0.44 0.02 0 0.46 0.02 0 
0.48 0.02 0 0.5 0.02 0 0.52 0.02 0 
0.54 0.02 0 0.56 0.02 0 0.58 0.02 0 
0.6 0.02 0 0.62 0.02 0 0.64 0.02 0 
0.66 0.02 0 0.68 0.02 0 0.7 0.02 0 
0.72 0.02 0 0.74 0.02 0 0.76 0.02 0 
0.78 0.02 0 0.8 0.02 0 0.82 0.02 0 
0.84 0.02 0 0.86 0.02 0 0.88 0.02 0 
0.9 0.02 0 0.92 0.02 0 0.94 0.02 0 
0.96 0.02 0 0.98 0.02 0 1 0.02 0 
0 0.04 0 0.02 0.04 0 0.04 0.04 0 
0.06 0.04 0 0.08 0.04 0 0.1 0.04 0 
0.12 0.04 0 0.14 0.04 0 0.16 0.04 0 
0.18 0.04 0 0.2 0.04 0 0.22 0.04 0 
0.24 0.04 0 0.26 0.04 0 0.28 0.04 0 
0.3 0.04 0 0.32 0.04 0 0.34 0.04 0 
0.36 0.04 0 0.38 0.04 0 0.4 0.04 0 
0.42 0.04 0 0.44 0.04 0 0.46 0.04 0 
0.48 0.04 0 0.5 0.04 0 0.52 0.04 0 
0.54 0.04 0 0.56 0.04 0 0.58 0.04 0 
0.6 0.04 0 0.62 0.04 0 0.64 0.04 0 
0.66 0.04 0 0.68 0.04 0 0.7 0.04 0 
0.72 0.04 0 0.74 0.04 0 0.76 0.04 0 
0.78 0.04 0 0.8 0.04 0 0.82 0.04 0 
0.84 0.04 0 0.86 0.04 0 0.88 0.04 0 
0.9 0.04 0 0.92 0.04 0 0.94 0.04 0 
0.96 0.04 0 0.98 0.04 0 1 0.04 0 
0 0.06 0 0.02 0.06 0 0.04 0.06 0 
0.06 0.06 0 0.08 0.06 0 0.1 0.06 0 
0.12 0.06 0 0.14 0.06 0 0.16 0.06 0 
0.18 0.06 0 0.2 0.06 0 0.22 0.06 0 
0.24 0.06 0 0.26 0.06 0 0.28 0.06 0 
0.3 0.06 0 0.32 0.06 0 0.34 0.06 0 
0.36 0.06 0 0.38 0.06 0 0.4 0.06 0 
0.42 0.06 0 0.44 0.06 0 0.46 0.06 0 
0.48 0.06 0 0.5 0.06 0 0.52 0.06 0 
0.54 0.06 0 0.56 0.06 0 0.58 0.06 0 
0.6 0.06 0 0.62 0.06 0 0.64 0.06 0 
0.66 0.06 0 0.68 0.06 0 0.7 0.06 0 
0.72 0.06 0 0.74 0.06 0 0.76 0.06 0 
0.78 0.06 0 0.8 0.06 0 0.82 0.06 0 
0.84 0.06 0 0.86 0.06 0 0.88 0.06 0 
0.9 0.06 0 0.92 0.06 0 0.94 0.06 0 
0.96 0.06 0 0.98 0.06 0 1 0.06 0 
0 0.08 0 0.02 0.08 0 0.04 0.08 0 
0.06 0.08 0 0.08 0.08 0 0.1 0.08 0 
0.12 0.08 0 0.14 0.08 0 0.16 0.08 0 
0.18 0.08 0 0.2 0.08 0 0.22 0.08 0 
0.24 0.08 0 0.26 0.08 0 0.28 0.08 0 
0.3 0.08 0 0.32 0.08 0 0.34 0.08 0 
0.36 0.08 0 0.38 0.08 0 0.4 0.08 0 
0.42 0.08 0 0.44 0.08 0 0.46 0.08 0 
0.48 0.08 0 0.5 0.08 0 0.52 0.08 0 
0.54 0.08 0 0.56 0.08 0 0.58 0.08 0 
0.6 0.08 0 0.62 0.08 0 0.64 0.08 0 
0.66 0.08 0 0.68 0.08 0 0.7 0.08 0 
0.72 0.08 0 0.74 0.08 0 0.76 0.08 0 
0.78 0.08 0 0.8 0.08 0 0.82 0.08 0 
0.84 0.08 0 0.86 0.08 0 0.88 0.08 0 
0.9 0.08 0 0.92 0.08 0 0.94 0.08 0 
0.96 0.08 0 0.98 0.08 0 1 0.08 0 
0 0.1 0 0.02 0.1 0 0.04 0.1 0 
0.06 0.1 0 0.08 0.1 0 0.1 0.1 0 
0.12 0.1 0 0.14 0.1 0 0.16 0.1 0 
0.18 0.1 0 0.2 0.1 0 0.22 0.1 0 
0.24 0.1 0 0.26 0.1 0 0.28 0.1 0 
0.3 0.1 0 0.32 0.1 0 0.34 0.1 0 
0.36 0.1 0 0.38 0.1 0 0.4 0.1 0 
0.42 0.1 0 0.44 0.1 0 0.46 0.1 0 
0.48 0.1 0 0.5 0.1 0 0.52 0.1 0 
0.54 0.1 0 0.56 0.1 0 0.58 0.1 0 
0.6 0.1 0 0.62 0.1 0 0.64 0.1 0 
0.66 0.1 0 0.68 0.1 0 0.7 0.1 0 
0.72 0.1 0 0.74 0.1 0 0.76 0.1 0 
0.78 0.1 0 0.8 0.1 0 0.82 0.1 0 
0.84 0.1 0 0.86 0.1 0 0.88 0.1 0 
0.9 0.1 0 0.92 0.1 0 0.94 0.1 0 
0.96 0.1 0 0.98 0.1 0 1 0.1 0 
0 0.12 0 0.02 0.12 0 0.04 0.12 0 
0.06 0.12 0 0.08 0.12 0 0.1 0.12 0 
0.12 0.12 0 0.14 0.12 0 0.16 0.12 0 
0.18 0.12 0 0.2 0.12 0 0.22 0.12 0 
0.24 0.12 0 0.26 0.12 0 0.28 0.12 0 
0.3 0.12 0 0.32 0.12 0 0.34 0.12 0 
0.36 0.12 0 0.38 0.12 0 0.4 0.12 0 
0.42 0.12 0 0.44 0.12 0 0.46 0.12 0 
0.48 0.12 0 0.5 0.12 0 0.52 0.12 0 
0.54 0.12 0 0.56 0.12 0 0.58 0.12 0 
0.6 0.12 0 0.62 0.12 0 0.64 0.12 0 
0.66 0.12 0 0.68 0.12 0 0.7 0.12 0 
0.72 0.12 0 0.74 0.12 0 0.76 0.12 0 
0.78 0.12 0 0.8 0.12 0 0.82 0.12 0 
0.84 0.12 0 0.86 0.12 0 0.88 0.12 0 
0.9 0.12 0 0.92 0.12 0 0.94 0.12 0 
0.96 0.12 0 0.98 0.12 0 1 0.12 0 
0 0.14 0 0.02 0.14 0 0.04 0.14 0 
0.06 0.14 0 0.08 0.14 0 0.1 0.14 0 
0.12 0.14 0 0.14 0.14 0 0.16 0.14 0 
0.18 0.14 0 0.2 0.14 0 0.22 0.14 0 
0.24 0.14 0 0.26 0.14 0 0.28 0.14 0 
0.3 0.14 0 0.32 0.14 0 0.34 0.14 0 
0.36 0.14 0 0.38 0.14 0 0.4 0.14 0 
0.42 0.14 0 0.44 0.14 0 0.46 0.14 0 
0.48 0.14 0 0.5 0.14 0 0.52 0.14 0 
0.54 0.14 0 0.56 0.14 0 0.58 0.14 0 
0.6 0.14 0 0.62 0.14 0 0.64 0.14 0 
0.66 0.14 0 0.68 0.14 0 0.7 0.14 0 
0.72 0.14 0 0.74 0.14 0 0.76 0.14 0 
0.78 0.14 0 0.8 0.14 0 0.82 0.14 0 
0.84 0.14 0 0.86 0.14 0 0.88 0.14 0 
0.9 0.14 0 0.92 0.14 0 0.94 0.14 0 
0.96 0.14 0 0.98 0.14 0 1 0.14 0 
0 0.16 0 0.02 0.16 0 0.04 0.16 0 
0.06 0.16 0 0.08 0.16 0 0.1 0.16 0 
0.12 0.16 0 0.14 0.16 0 0.16 0.16 0 
0.18 0.16 0 0.2 0.16 0 0.22 0.16 0 
0.24 0.16 0 0.26 0.16 0 0.28 0.16 0 
0.3 0.16 0 0.32 0.16 0 0.34 0.16 0 
0.36 0.16 0 0.38 0.16 0 0.4 0.16 0 
0.42 0.16 0 0.44 0.16 0 0.46 0.16 0 
0.48 0.16 0 0.5 0.16 0 0.52 0.16 0 
0.54 0.16 0 0.56 0.16 0 0.58 0.16 0 
0.6 0.16 0 0.62 0.16 0 0.64 0.16 0 
0.66 0.16 0 0.68 0.16 0 0.7 0.16 0 
0.72 0.16 0 0.74 0.16 0 0.76 0.16 0 
0.78 0.16 0 0.8 0.16 0 0.82 0.16 0 
0.84 0.16 0 0.86 0.16 0 0.88 0.16 0 
0.9 0.16 0 0.92 0.16 0 0.94 0.16 0 
0.96 0.16 0 0.98 0.16 0 1 0.16 0 
0 0.18 0 0.02 0.18 0 0.04 0.18 0 
0.06 0.18 0 0.08 0.18 0 0.1 0.18 0 
0.12 0.18 0 0.14 0.18 0 0.16 0.18 0 
0.18 0.18 0 0.2 0.18 0 0.22 0.18 0 
0.24 0.18 0 0.26 0.18 0 0.28 0.18 0 
0.3 0.18 0 0.32 0.18 0 0.34 0.18 0 
0.36 0.18 0 0.38 0.18 0 0.4 0.18 0 
0.42 0.18 0 0.44 0.18 0 0.46 0.18 0 
0.48 0.18 0 0.5 0.18 0 0.52 0.18 0 
0.54 0.18 0 0.56 0.18 0 0.58 0.18 0 
0.6 0.18 0 0.62 0.18 0 0.64 0.18 0 
0.66 0.18 0 0.68 0.18 0 0.7 0.18 0 
0.72 0.18 0 0.74 0.18 0 0.76 0.18 0 
0.78 0.18 0 0.8 0.18 0 0.82 0.18 0 
0.84 0.18 0 0.86 0.18 0 0.88 0.18 0 
0.9 0.18 0 0.92 0.18 0 0.94 0.18 0 
0.96 0.18 0 0.98 0.18 0 1 0.18 0 
0 0.2 0 0.02 0.2 0 0.04 0.2 0 
0.06 0.2 0 0.08 0.2 0 0.1 0.2 0 
0.12 0.2 0 0.14 0.2 0 0.16 0.2 0 
0.18 0.2 0 0.2 0.2 0 0.22 0.2 0 
0.24 0.2 0 0.26 0.2 0 0.28 0.2 0 
0.3 0.2 0 0.32 0.2 0 0.34 0.2 0 
0.36 0.2 0 0.38 0.2 0 0.4 0.2 0 
0.42 0.2 0 0.44 0.2 0 0.46 0.2 0 
0.48 0.2 0 0.5 0.2 0 0.52 0.2 0 
0.54 0.2 0 0.56 0.2 0 0.58 0.2 0 
0.6 0.2 0 0.62 0.2 0 0.64 0.2 0 
0.66 0.2 0 0.68 0.2 0 0.7 0.2 0 
0.72 0.2 0 0.74 0.2 0 0.76 0.2 0 
0.78 0.2 0 0.8 0.2 0 0.82 0.2 0 
0.84 0.2 0 0.86 0.2 0 0.88 0.2 0 
0.9 0.2 0 0.92 0.2 0 0.94 0.2 0 
0.96 0.2 0 0.98 0.2 0 1 0.2 0 
0 0.22 0 0.02 0.22 0 0.04 0.22 0 
0.06 0.22 0 0.08 0.22 0 0.1 0.22 0 
0.12 0.22 0 0.14 0.22 0 0.16 0.22 0 
0.18 0.22 0 0.2 0.22 0 0.22 0.22 0 
0.24 0.22 0 0.26 0.22 0 0.28 0.22 0 
0.3 0.22 0 0.32 0.22 0 0.34 0.22 0 
0.36 0.22 0 0.38 0.22 0 0.4 0.22 0 
0.42 0.22 0 0.44 0.22 0 0.46 0.22 0 
0.48 0.22 0 0.5 0.22 0 0.52 0.22 0 
0.54 0.22 0 0.56 0.22 0 0.58 0.22 0 
0.6 0.22 0 0.62 0.22 0 0.64 0.22 0 
0.66 0.22 0 0.68 0.22 0 0.7 0.22 0 
0.72 0.22 0 0.74 0.22 0 0.76 0.22 0 
0.78 0.22 0 0.8 0.22 0 0.82 0.22 0 
0.84 0.22 0 0.86 0.22 0 0.88 0.22 0 
0.9 0.22 0 0.92 0.22 0 0.94 0.22 0 
0.96 0.22 0 0.98 0.22 0 1 0.22 0 
0 0.24 0 0.02 0.24 0 0.04 0.24 0 
0.06 0.24 0 0.08 0.24 0 0.1 0.24 0 
0.12 0.24 0 0.14 0.24 0 0.16 0.24 0 
0.18 0.24 0 0.2 0.24 0 0.22 0.24 0 
0.24 0.24 0 0.26 0.24 0 0.28 0.24 0 
0.3 0.24 0 0.32 0.24 0 0.34 0.24 0 
0.36 0.24 0 0.38 0.24 0 0.4 0.24 0 
0.42 0.24 0 0.44 0.24 0 0.46 0.24 0 
0.48 0.24 0 0.5 0.24 0 0.52 0.24 0 
0.54 0.24 0 0.56 0.24 0 0.58 0.24 0 
0.6 0.24 0 0.62 0.24 0 0.64 0.24 0 
0.66 0.24 0 0.68 0.24 0 0.7 0.24 0 
0.72 0.24 0 0.74 0.24 0 0.76 0.24 0 
0.78 0.24 0 0.8 0.24 0 0.82 0.24 0 
0.84 0.24 0 0.86 0.24 0 0.88 0.24 0 
0.9 0.24 0 0.92 0.24 0 0.94 0.24 0 
0.96 0.24 0 0.98 0.24 0 1 0.24 0 
0 0.26 0 0.02 0.26 0 0.04 0.26 0 
0.06 0.26 0 0.08 0.26 0 0.1 0.26 0 
0.12 0.26 0 0.14 0.26 0 0.16 0.26 0 
0.18 0.26 0 0.2 0.26 0 0.22 0.26 0 
0.24 0.26 0 0.26 0.26 0 0.28 0.26 0 
0.3 0.26 0 0.32 0.26 0 0.34 0.26 0 
0.36 0.26 0 0.38 0.26 0 0.4 0.26 0 
0.42 0.26 0 0.44 0.26 0 0.46 0.26 0 
0.48 0.26 0 0.5 0.26 0 0.52 0.26 0 
0.54 0.26 0 0.56 0.26 0 0.58 0.26 0 
0.6 0.26 0 0.62 0.26 0 0.64 0.26 0 
0.66 0.26 0 0.68 0.26 0 0.7 0.26 0 
0.72 0.26 0 0.74 0.26 0 0.76 0.26 0 
0.78 0.26 0 0.8 0.26 0 0.82 0.26 0 
0.84 0.26 0 0.86 0.26 0 0.88 0.26 0 
0.9 0.26 0 0.92 0.26 0 0.94 0.26 0 
0.96 0.26 0 0.98 0.26 0 1 0.26 0 
0 0.28 0 0.02 0.28 0 0.04 0.28 0 
0.06 0.28 0 0.08 0.28 0 0.1 0.28 0 
0.12 0.28 0 0.14 0.28 0 0.16 0.28 0 
0.18 0.28 0 0.2 0.28 0 0.22 0.28 0 
0.24 0.28 0 0.26 0.28 0 0.28 0.28 0 
0.3 0.28 0 0.32 0.28 0 0.34 0.28 0 
0.36 0.28 0 0.38 0.28 0 0.4 0.28 0 
0.42 0.28 0 0.44 0.28 0 0.46 0.28 0 
0.48 0.28 0 0.5 0.28 0 0.52 0.28 0 
0.54 0.28 0 0.56 0.28 0 0.58 0.28 0 
0.6 0.28 0 0.62 0.28 0 0.64 0.28 0 
0.66 0.28 0 0.68 0.28 0 0.7 0.28 0 
0.72 0.28 0 0.74 0.28 0 0.76 0.28 0 
0.78 0.28 0 0.8 0.28 0 0.82 0.28 0 
0.84 0.28 0 0.86 0.28 0 0.88 0.28 0 
0.9 0.28 0 0.92 0.28 0 0.94 0.28 0 
0.96 0.28 0 0.98 0.28 0 1 0.28 0 
0 0.3 0 0.02 0.3 0 0.04 0.3 0 
0.06 0.3 0 0.08 0.3 0 0.1 0.3 0 
0.12 0.3 0 0.14 0.3 0 0.16 0.3 0 
0.18 0.3 0 0.2 0.3 0 0.22 0.3 0 
0.24 0.3 0 0.26 0.3 0 0.28 0.3 0 
0.3 0.3 0 0.32 0.3 0 0.34 0.3 0 
0.36 0.3 0 0.38 0.3 0 0.4 0.3 0 
0.42 0.3 0 0.44 0.3 0 0.46 0.3 0 
0.48 0.3 0 0.5 0.3 0 0.52 0.3 0 
0.54 0.3 0 0.56 0.3 0 0.58 0.3 0 
0.6 0.3 0 0.62 0.3 0 0.64 0.3 0 
0.66 0.3 0 0.68 0.3 0 0.7 0.3 0 
0.72 0.3 0 0.74 0.3 0 0.76 0.3 0 
0.78 0.3 0 0.8 0.3 0 0.82 0.3 0 
0.84 0.3 0 0.86 0.3 0 0.88 0.3 0 
0.9 0.3 0 0.92 0.3 0 0.94 0.3 0 
0.96 0.3 0 0.98 0.3 0 1 0.3 0 
0 0.32 0 0.02 0.32 0 0.04 0.32 0 
0.06 0.32 0 0.08 0.32 0 0.1 0.32 0 
0.12 0.32 0 0.14 0.32 0 0.16 0.32 0 
0.18 0.32 0 0.2 0.32 0 0.22 0.32 0 
0.24 0.32 0 0.26 0.32 0 0.28 0.32 0 
0.3 0.32 0 0.32 0.32 0 0.34 0.32 0 
0.36 0.32 0 0.38 0.32 0 0.4 0.32 0 
0.42 0.32 0 0.44 0.32 0 0.46 0.32 0 
0.48 0.32 0 0.5 0.32 0 0.52 0.32 0 
0.54 0.32 0 0.56 0.32 0 0.58 0.32 0 
[...]
CELL_DATA 2500
FIELD FieldData 1
pressure 1 2500 double
0.0061875177758 0.0061174291756 0.005924016795 0.0056476504754 0.0053291971307 0.0050017286565 0.0046891132988 0.0044077526153 0.0041695446459 
0.003983827032 0.0038574290327 0.0037940653662 0.0037947307576 0.0038592483282 0.0039876945397 0.0041806395047 0.0044384412198 0.0047605835061 
0.005145597829 0.0055912739687 0.0060946458893 0.0066516642114 0.0072568486856 0.0079031456535 0.0085819318032 0.0092829944375 0.0099940744952 
0.010701970625 0.01139272921 0.012051802541 0.012664500688 0.013216502794 0.0136944179 0.014086397654 0.014382774055 0.014576665541 
0.014664493021 0.014646369543 0.014526351409 0.014312549946 0.014017104924 0.01365602647 0.013248928881 0.012818694534 0.012391106056 
0.011994349046 0.011658250984 0.011412354527 0.011280748922 0.011268340929 0.0062512998264 0.0061819752799 0.0060182900582 0.005790446016 
0.0055276944188 0.0052548602419 0.0049911322316 0.0047514470902 0.0045480242924 0.0043903738622 0.0042845330771 0.0042332693505 0.0042376419524 
0.0042986404951 0.0044176229331 0.004595665125 0.0048329014225 0.0051285321169 0.0054811930253 0.0058890516908 0.0063494774571 0.00685863804 
0.0074113349559 0.0080010352319 0.0086198931755 0.0092587007877 0.009905912445 0.010549537385 0.011176984237 0.011775176199 0.012330956851 
0.012831542731 0.013265043988 0.013621039147 0.013891152992 0.01406957989 0.014153514697 0.014143475569 0.014043510609 0.013861276458 
0.013607976715 0.013298161363 0.012949406676 0.012581899041 0.012217922481 0.011881191731 0.011595832624 0.011384807615 0.011267282724 
0.011255922767 0.0064418081386 0.0063433991622 0.0061787609294 0.0059692894549 0.0057357057455 0.0054959429129 0.0052650295098 0.0050560853858 
0.0048802045527 0.0047452407822 0.004655396795 0.0046126007705 0.0046184855114 0.00467520076 0.0047847612652 0.0049481439372 0.0051652108943 
0.0054352839949 0.0057574948502 0.0061305087896 0.0065520042322 0.0070184154877 0.0075249874667 0.0080658534214 0.0086339637373 0.0092209759304 
0.0098158002967 0.010407438047 0.010984341663 0.011534509342 0.012045848954 0.012506610045 0.012905895981 0.013234215145 0.013484010087 
0.013650121494 0.013730169569 0.013724843446 0.013638080429 0.013477109222 0.013252340554 0.012977111379 0.012667305615 0.012340871804 
0.012017239753 0.011716615916 0.011459115115 0.011263767438 0.011147625742 0.011126125364 0.006724029126 0.0065739204446 0.0063854804716 
0.0061718385098 0.0059467523365 0.0057227924232 0.005511592807 0.0053239043291 0.0051682603318 0.0050497440855 0.0049706548528 0.0049326073932 
0.0049379684669 0.0049894969251 0.0050891306063 0.0052374934698 0.0054344669721 0.0056798811181 0.0059734853883 0.0063143651758 0.006700495265 
0.0071287291762 0.0075949460838 0.0080940209176 0.0086196300001 0.0091641303814 0.0097167681943 0.010267317558 0.010804988817 0.011318506754 
0.011796449484 0.012227683834 0.012601880147 0.012910045291 0.01314501926 0.013301911193 0.013378466263 0.01337534554 0.013296285349 
0.013148103041 0.012940537917 0.012685942374 0.012398849586 0.012095439424 0.011792918369 0.011508832812 0.011260351482 0.01106361096 
0.010933334487 0.01088316929 0.0070597377339 0.006844689517 0.0066164957777 0.0063821817942 0.0061503823819 0.005929600868 0.0057282242072 
0.00555372656 0.0054110978434 0.0053024990144 0.0052289034043 0.005192048149 0.0051947462308 0.0052396494762 0.0053281736329 0.0054606979731 
0.0056374623985 0.0058589570288 0.0061254693928 0.0064364418054 0.006790260879 0.0071844041059 0.0076155027459 0.0080791440937 0.008569618698 
0.0090798571425 0.0095994076341 0.010118609382 0.010627190819 0.011114305526 0.011568868611 0.011980009375 0.012337592256 0.012632739541 
0.01285831735 0.013009373928 0.013083517195 0.013081198034 0.01300585438 0.01286388446 0.012664447011 0.012419109222 0.012141368723 
0.01184607468 0.011548779268 0.011265063926 0.011009897199 0.010797094844 0.010638966735 0.01054616979 0.0074145579893 0.0071271083269 
0.0068488773677 0.0065833048229 0.0063352109005 0.0061093588381 0.0059103685768 0.0057417434207 0.0056048839354 0.0054997458012 0.0054267264881 
0.0053877279035 0.0053853904379 0.0054216573951 0.0054973358021 0.005612849624 0.0057690188175 0.0059669629089 0.006207409048 0.006490207821 
0.0068143400169 0.0071780476246 0.0075787159041 0.0080125605831 0.0084744088561 0.0089577145834 0.0094523601984 0.0099490400867 0.010437790661 
0.010907935742 0.011348442447 0.011748396275 0.012097527997 0.012386736043 0.012608583801 0.012757763559 0.012831500489 0.012829848114 
0.012755826071 0.012615374603 0.012417129824 0.012172040166 0.011892848464 0.011593470495 0.011288315786 0.010991608791 0.010716767792 
0.010475882872 0.010279294487 0.01013515542 0.0077579352293 0.0073946908342 0.0070616223793 0.0067598300782 0.0064903629617 0.0062538539924 
0.0060508033913 0.0058809371423 0.005742936178 0.0056355400575 0.005558917324 0.0055146767933 0.0055046029704 0.0055296704081 0.0055903118971 
0.0056873118618 0.0058221427894 0.0059964544458 0.0062113883601 0.0064673280056 0.0067639906797 0.0071004160345 0.0074746863812 0.0078835960716 
0.0083225096597 0.0087854132039 0.0092625872144 0.0097448484579 0.010222354519 0.010684383398 0.011119718861 0.011517141854 0.011865960813 
0.01215654513 0.0123808532 0.012532938996 0.012609393932 0.012609665494 0.012536204664 0.012394421715 0.012192454417 0.011940764173 
0.011651583545 0.011338254167 0.011014513451 0.010693796096 0.010388605556 0.010109981702 0.0098670399317 0.0096664679664 0.0080634187365 
0.0076250292044 0.0072370916196 0.0068978752005 0.0066040748994 0.0063521260853 0.0061389186416 0.0059613967591 0.0058165898965 0.0057025401677 
0.0056188983901 0.0055663092515 0.0055453307867 0.0055561501675 0.0055992333163 0.0056759345737 0.0057883224512 0.0059384850008 0.0061280223471 
0.0063579750623 0.0066288636498 0.0069405053364 0.0072916522678 0.0076797049333 0.0081006223233 0.0085489427012 0.0090154213722 0.0094907478565 
0.0099650546445 0.010427412317 0.010866235374 0.01126977642 0.011626659771 0.011926439574 0.012160175325 0.012320993945 0.01240458096 
0.012409538129 0.012337562237 0.012193425024 0.011984752375 0.011721611761 0.011415932503 0.011080806774 0.010729739594 0.010375919454 
0.010031565977 0.0097073797275 0.0094120711489 0.0091518789327 0.0083094456464 0.0077999341791 0.0073596645634 0.0069829467445 0.0066621512313 
0.0063903489223 0.0061619272932 0.0059720351669 0.0058165455788 0.0056926203019 0.0055988117508 0.005534411602 0.0054988959917 0.0054921354129 
0.0055149739692 0.0055693582498 0.0056578235079 0.005782855817 0.0059466026742 0.0061508602489 0.0063969815722 0.0066855613261 0.0070160606268 
0.0073865658014 0.0077936941895 0.0082325412197 0.0086944465942 0.0091697374455 0.0096484350386 0.01011929644 0.010570219434 0.01098872819 
0.011362516158 0.011680043326 0.011931172011 0.012107794705 0.012204387973 0.01221842953 0.012150633699 0.01200497977 0.011788521469 
0.011510980292 0.011184149275 0.010821162344 0.010435704281 0.01004123817 0.0096503122983 0.0092739785728 0.0089213100032 0.0085989492874 
0.0084788324355 0.0079035601651 0.0074135794081 0.0069989251861 0.0066487057356 0.0063538633211 0.0061071130518 0.0059021071358 0.0057333720853 
0.005596731334 0.0054893255764 0.0054092332953 0.0053553385367 0.00532763358 0.0053274536952 0.0053572102137 0.0054197979295 0.0055181437124 
0.0056550623974 0.0058331903332 0.0060547489048 0.006321155166 0.0066326615639 0.0069881276944 0.0073848789448 0.0078185747649 0.0082813208911 
0.0087628903517 0.0092531686855 0.0097405365974 0.010212253542 0.010654932048 0.011055099762 0.011399846649 0.011677528448 0.011878469001 
0.011995592973 0.012024926744 0.011965918696 0.011821542746 0.011598161311 0.011305144129 0.01095426998 0.010558970071 0.010133492129 
0.0096920681398 0.0092481569212 0.0088138049676 0.008399126506 0.0080118531942 0.0085567667015 0.0079204188559 0.0073823844654 0.0069293228226 
0.0065484509384 0.0062292991056 0.0059629439502 0.0057412317012 0.0055569827211 0.0054045078448 0.0052797126155 0.005179929654 0.0051039110033 
0.0050519510323 0.0050257825428 0.0050281425503 0.0050622847572 0.005131702047 0.0052400092554 0.0053907600195 0.0055870962569 0.00583133076 
0.00612460044 0.0064666190673 0.0068554740066 0.0072874320466 0.0077556428355 0.0082491872098 0.0087578394881 0.009269573812 0.0097709141785 
0.010247400392 0.010684175916 0.01106668795 0.011381460595 0.011616880346 0.011763926966 0.01181678607 0.011773285707 0.011635106271 
0.011407726351 0.011100092789 0.010724038425 0.010293505243 0.0098236539552 0.0093299502957 0.0088273114028 0.0083293704425 0.0078478761019 
0.0073921951541 0.0085288854468 0.0078349111659 0.0072501331556 0.0067591877256 0.0063481218817 0.0060048901064 0.0057184473124 0.0054785070017 
0.0052761565852 0.0051044423739 0.0049584581136 0.0048351987978 0.0047334806731 0.0046538514623 0.0045983104598 0.0045698936129 0.0045723295704 
0.0046098389159 0.0046869507038 0.0048081990418 0.004977707533 0.0051987710898 0.0054735097229 0.0058025826799 0.0061849245027 0.0066175062155 
0.007094902651 0.0076054092859 0.0081387559152 0.0086825165879 0.009222419188 0.0097428042062 0.010227235978 0.010659249914 0.011023194177 
0.011305108381 0.011493574776 0.011580473314 0.011561569846 0.011436869768 0.011210684023 0.010891383388 0.010490854898 0.010023711924 
0.0095063390896 0.0089558706335 0.0083892005113 0.0078221009286 0.0072684860216 0.0067398100755 0.008380730322 0.0076321295064 0.007002630262 
0.0064757043525 0.0060360364534 0.005669383149 0.0053622118001 0.0051021734794 0.0048789508269 0.0046847082274 0.0045140386786 0.0043637558085 
0.0042327248204 0.0041216542858 0.0040327829979 0.0039695460665 0.0039363136358 0.0039381706672 0.0039806351954 0.0040692729325 0.0042092622078 
0.0044049840777 0.0046596602951 0.0049750166967 0.0053509582363 0.0057852803049 0.0062745338564 0.006806109851 0.0073698330302 0.0079529383429 
0.0085403500381 0.0091151291026 0.0096590952013 0.010153608984 0.010580479711 0.010922948016 0.011166680431 0.011300699275 0.011318161975 
0.011216903376 0.010999668702 0.01067399424 0.01025173227 0.0097482596911 0.0091814489342 0.0085705082443 0.0079348073423 0.0072927891634 
0.0066610317244 0.0060534775884 0.008098332072 0.0072986332443 0.0066275394943 0.006067419929 0.0056009562193 0.00521126212 0.0048823964067 
0.0046003273336 0.0043536926069 0.0041339868231 0.0039353848604 0.0037545146005 0.0035902493043 0.0034434552903 0.0033166970078 0.0032139586201 
0.0031403899141 0.003102021113 0.0031054034934 0.0031571918751 0.0032637173125 0.0034305790082 0.0036622494975 0.003961678996 0.0043299071034 
0.0047657151336 0.005268119377 0.0058237161052 0.0064226118578 0.007051820619 0.0076955188502 0.0083354635626 0.0089516018705 0.009522871529 
0.010028169832 0.010447448967 0.010762874628 0.010959963129 0.011028595759 0.010963803495 0.010766225218 0.010442169059 0.010003246895 
0.0094656017024 0.0088487990733 0.0081744971325 0.0074650317437 0.0067420492391 0.00602528831 0.0053315664846 0.0076688896687 0.0068225215097 
0.0061137509009 0.0055234318611 0.0050317366702 0.0046191356262 0.0042676503946 0.0039619198658 0.0036896863181 0.0034417866946 0.003211966137 
0.0029966738941 0.0027948256479 0.002607523279 0.0024377758294 0.0022902353334 0.0021709080324 0.0020868077019 0.0020455607709 0.0020549935401 
0.0021227178383 0.0022557093649 0.0024598671875 0.0027395563405 0.0030971554113 0.0035326494904 0.0040477180764 0.004628808805 0.0052664848822 
0.0059477084315 0.0066560370896 0.0073719684954 0.0080735032744 0.0087369415351 0.0093379028967 0.0098525364353 0.010258858769 0.010538129485 
0.010676148689 0.010664347321 0.010500542224 0.010189248197 0.0097414792887 0.0091740288638 0.0085082844527 0.0077686954979 0.0069810549083 
0.0061707676285 0.0053612586439 0.0045726268852 0.0070810192652 0.0061931798305 0.0054510189693 0.0048334250292 0.0043179263276 0.0038826447158 
0.003507916681 0.0031771936108 0.0028773005617 0.0025983947697 0.0023338336065 0.0020799598061 0.0018358056311 0.0016027898833 0.0013844502989 
0.001186168658 0.0010148384877 0.00087848378657 0.00078586589245 0.00074609054238 0.00076819685828 0.00086070826604 0.0010311436424 0.0012855032351 
0.0016277456948 0.0020592565864 0.0025843367578 0.0031906415755 0.0038691905304 0.0046071334632 0.0053876393377 0.0061900851834 0.0069905313529 
0.0077624861073 0.0084779578865 0.0091087718377 0.0096280948675 0.010012077278 0.01024148437 0.010303164311 0.010191186302 0.0099074929015 
0.0094619473402 0.008871720621 0.0081600466703 0.0073544609818 0.0064847096761 0.005580553805 0.0046696884588 0.0037759514548 0.0063248080479 
0.0054012677285 0.004630191139 0.0039882368061 0.0034504493231 0.0029929445306 0.0025945621596 0.002237565647 0.0019078432242 0.001594934527 
0.0012919095456 0.00099507707802 0.00070362964835 0.00041934457311 0.00014632744379 -0.00010928858504 -0.00033971063177 -0.00053587166271 -0.00068779991649 
-0.00078499378286 -0.00081684178192 -0.00077310248413 -0.0006444309234 -0.00042293045531 -0.00010272070735 0.00031945239158 0.00084854597017 0.0014779978875 
0.0021976455901 0.002995362268 0.0038543242303 0.004753053718 0.0056657876228 0.0065631803656 0.0074133588399 0.0081833248407 0.0088406636698 
0.0093554730483 0.0097023785698 0.009862457386 0.0098248605869 0.0095879184651 0.0091595414736 0.0085567973247 0.0078046462143 0.0069339349834 
0.0059788620069 0.0049742000867 0.0039525840132 0.0029421288338 0.0053919927988 0.0044389702869 0.0036435821943 0.0029802298405 0.0024217854896 
0.0019426322519 0.0015201917806 0.0011355470508 0.00077372122091 0.0004237520327 7.8494842501e-05 -0.00026576306776 -0.0006096698151 -0.00095107645595 
-0.0012852972133 -0.0016054480101 -0.001902832199 -0.0021673044902 -0.0023876090885 -0.002551744976 -0.0026473999738 -0.0026624530102 -0.0025855213545 
-0.0024065320219 -0.002117296229 -0.0017120172641 -0.0011874394194 -0.00053933696532 0.00021918868796 0.0010775206324 0.0020193749637 0.0030228164305 
0.0040605089014 0.0051003157718 0.0061063126043 0.007040238324 0.0078633683479 0.0085387391058 0.0090335900644 0.0093218233971 0.0093862252301 
0.0092201621605 0.0088284785632 0.0082273852134 0.0074432483661 0.0065103451766 0.0054678149801 0.0043561655131 0.0032137515932 0.0020736138329 
0.0042761986258 0.0033001793297 0.0024850939093 0.0018032977399 0.0012258622419 0.00072564291043 0.00027870878198 -0.00013495928882 -0.00053108316449 
-0.00092104940439 -0.0013122218712 -0.0017083701941 -0.0021099956356 -0.0025145734158 -0.0029168464163 -0.003309201553 -0.0036820468919 -0.0040241355509 
-0.0043228744447 -0.0045646858447 -0.0047354496218 -0.0048210124313 -0.0048077449693 -0.0046831438294 -0.0044364803704 -0.0040594836799 -0.0035470328495 
-0.0028888849692 -0.0020968798472 -0.0011799101048 -0.00015320194787 0.00096136434246 0.0021352833846 0.003333850601 0.0045170663063 0.0056410776803 
0.0066601758645 0.0075293042075 0.00820695461 0.0086582384957 0.0088578311934 0.0087924241237 0.0084623020451 0.0078817142284 0.0070778391571 
0.0060883415133 0.0049577514817 0.0037331022165 0.0024593806393 0.0011753400241 0.0029730087976 0.0019804674276 0.0011501700577 0.00045283787445 
-0.00014189627587 -0.00066254687909 -0.0011343061417 -0.0015781773624 -0.0020105368151 -0.002443194508 -0.0028837865343 -0.0033361739138 -0.0038007148032 
-0.0042745212719 -0.0047518074269 -0.0052242820344 -0.0056814876338 -0.0061110765241 -0.0064990956655 -0.0068303424157 -0.0070887997924 -0.0072581348259 
-0.0073222568412 -0.0072659531063 -0.0070756253691 -0.0067401559786 -0.0062520032118 -0.0055945386435 -0.0047776166966 -0.0038072392108 -0.0026968013373 
-0.0014674383546 -0.0001482320334 0.0012239698671 0.0026052668769 0.0039460579431 0.0051930950357 0.0062922350838 0.0071917939065 0.007846289308 
0.0082202347549 0.0082915345251 0.0080539688708 0.0075182792602 0.0067114952256 0.0056743861101 0.0044572353504 0.0031144454508 0.0016986941942 
0.00025540140769 0.0014798585858 0.00047703543191 -0.00036413972909 -0.001074081097 -0.0016843075177 -0.002224578606 -0.0027212317346 -0.0031961421692 
-0.0036663072454 -0.0041440051678 -0.0046371925402 -0.0051498358997 -0.0056821653192 -0.0062309855682 -0.0067900691595 -0.0073505278978 -0.0079010932481 
-0.0084283472648 -0.0089169872809 -0.0093501653685 -0.0097098976853 -0.0099775363874 -0.010134320049 -0.010162032282 -0.010043790322 -0.0097649674944 
-0.0093142264709 -0.0086734904275 -0.0078441025818 -0.0068292734852 -0.0056398996682 -0.0042955460147 -0.0028250714373 -0.0012668025874 0.00033188605048 
0.0019157296648 0.0034235847328 0.0047913487819 0.0059557396682 0.0068587440283 0.0074523757363 0.0077032157528 0.0075960770036 0.0071361052404 
0.0063487382321 0.005277222131 0.0039777942268 0.0025130911029 0.000944692302 -0.00067416896281 -0.00020403844851 -0.0012111930275 -0.0020589800053 
-0.0027785023904 -0.0034022347603 -0.0039610548332 -0.0044823043435 -0.0049886399304 -0.0054976845601 -0.0060222314699 -0.0065705855525 -0.0071468404343 
-0.0077511620535 -0.0083801622345 -0.0090272987057 -0.0096831911732 -0.010335838962 -0.010970815946 -0.011571512936 -0.012119445148 -0.012594618261 
-0.012975962826 -0.013241869209 -0.013370856662 -0.01334239207 -0.013137854649 -0.012741644036 -0.012135592596 -0.011309280169 -0.010262775046 
-0.0090033716756 -0.0075479894166 -0.0059242227875 -0.0041709407381 -0.0023382639802 -0.00048672617583 0.0013145646953 0.0029908953963 0.0044660722378 
0.0056675642616 0.0065323134797 0.0070126206386 0.007081298574 0.0067351659095 0.0059960117466 0.0049084521624 0.0035346112713 0.0019461872859 
0.00021501581017 -0.0015964944392 -0.002077602876 -0.0030833989228 -0.0039335649874 -0.0046595592654 -0.0052946431687 -0.0058706333261 -0.0064157101977 
-0.0069532436864 -0.0075015039055 -0.0080738396172 -0.0086789411002 -0.0093211019361 -0.010000556982 -0.010713889193 -0.011454392165 -0.012212315649 
-0.012975031504 -0.013727200426 -0.014450983068 -0.015126298563 -0.015731134298 -0.016241935416 -0.016634116078 -0.016882724875 -0.016963274669 
-0.016852719229 -0.016530487565 -0.01597918096 -0.015174970642 -0.014113599472 -0.012797535116 -0.011239806612 -0.009465484339 -0.0075127660444 
-0.0054334575385 -0.0032925938152 -0.0011669372767 0.00085787411683 0.0026916580878 0.0042454532732 0.0054384170111 0.00620523503 0.0065030932268 
0.0063170154077 0.0056623262731 0.0045832622507 0.0031473566885 0.0014360689841 -0.00046704054459 -0.0024887946997 -0.0041377397265 -0.0051368151032 
-0.0059852849998 -0.0067146846264 -0.007358825133 -0.0079502085473 -0.0085176841354 -0.0090852987545 -0.0096720111656 -0.010291786443 -0.010953789849 
-0.011662663532 -0.012418905165 -0.013219261376 -0.014057024828 -0.014922216333 -0.015801715109 -0.016679397611 -0.017536303404 -0.01835083046 
-0.019098980785 -0.019754699256 -0.020290351151 -0.020677370875 -0.020887102994 -0.020891859369 -0.020666246522 -0.020188965468 -0.019429353094 
-0.018373952678 -0.01701917849 -0.01537284898 -0.013456087785 -0.011304953749 -0.0089715332854 -0.0065241765619 -0.004046526802 -0.0016350018343 
0.00060553622724 0.0025680153911 0.0041510970338 0.0052682334436 0.0058567820671 0.0058856994947 0.0053601249738 0.0043213328051 0.0028411932607 
0.0010113667306 -0.0010713358162 -0.0033211403117 -0.0063793173316 -0.0073668928108 -0.0082099977269 -0.0089399081771 -0.009590629396 -0.010195051024 
-0.010782556295 -0.01137788271 -0.012000760032 -0.012665886711 -0.013383072292 -0.014157529379 -0.014990252776 -0.015878360762 -0.01681532379 
-0.017791102145 -0.018792250346 -0.019802019768 -0.020800465261 -0.021764569119 -0.022668419516 -0.023483492974 -0.024179084748 -0.02472292032 
-0.025081979 -0.025223571433 -0.025116745218 -0.024734217651 -0.024044983314 -0.023020042549 -0.021648852347 -0.019932729699 -0.017887338193 
-0.015544921907 -0.012956116144 -0.010190960693 -0.0073386769868 -0.0045057446429 -0.0018118513362 0.00061656249665 0.0026551443147 0.0041923665515 