# vtk DataFile Version 4.1
vtk output
ASCII
DATASET STRUCTURED_GRID
DIMENSIONS 51 51 1
POINTS 2601 float
0 0 0 0.02 0 0 0.04 0 0 
0.06 0 0 0.08 0 0 0.1 0 0 
0.12 0 0 0.14 0 0 0.16 0 0 
0.18 0 0 0.2 0 0 0.22 0 0 
0.24 0 0 0.26 0 0 0.28 0 0 
0.3 0 0 0.32 0 0 0.34 0 0 
0.36 0 0 0.38 0 0 0.4 0 0 
0.42 0 0 0.44 0 0 0.46 0 0 
0.48 0 0 0.5 0 0 0.52 0 0 
0.54 0 0 0.56 0 0 0.58 0 0 
0.6 0 0 0.62 0 0 0.64 0 0 
0.66 0 0 0.68 0 0 0.7 0 0 
0.72 0 0 0.74 0 0 0.76 0 0 
0.78 0 0 0.8 0 0 0.82 0 0 
0.84 0 0 0.86 0 0 0.88 0 0 
0.9 0 0 0.92 0 0 0.94 0 0 
0.96 0 0 0.98 0 0 1 0 0 
0 0.02 0 0.02 0.02 0 0.04 0.02 0 
0.06 0.02 0 0.08 0.02 0 0.1 0.02 0 
0.12 0.02 0 0.14 0.02 0 0.16 0.02 0 
0.18 0.02 0 0.2 0.02 0 0.22 0.02 0 
0.24 0.02 0 0.26 0.02 0 0.28 0.02 0 
0.3 0.02 0 0.32 0.02 0 0.34 0.02 0 
0.36 0.02 0 0.38 0.02 0 0.4 0.02 0 
0.42 0.02 0 0.44 0.02 0 0.46 0.02 0 
0.48 0.02 0 0.5 0.02 0 0.52 0.02 0 
0.54 0.02 0 0.56 0.02 0 0.58 0.02 0 
0.6 0.02 0 0.62 0.02 0 0.64 0.02 0 
0.66 0.02 0 0.68 0.02 0 0.7 0.02 0 
0.72 0.02 0 0.74 0.02 0 0.76 0.02 0 
0.78 0.02 0 0.8 0.02 0 0.82 0.02 0 
0.84 0.02 0 0.86 0.02 0 0.88 0.02 0 
0.9 0.02 0 0.92 0.02 0 0.94 0.02 0 
0.96 0.02 0 0.98 0.02 0 1 0.02 0 
0 0.04 0 0.02 0.04 0 0.04 0.04 0 
0.06 0.04 0 0.08 0.04 0 0.1 0.04 0 
0.12 0.04 0 0.14 0.04 0 0.16 0.04 0 
0.18 0.04 0 0.2 0.04 0 0.22 0.04 0 
0.24 0.04 0 0.26 0.04 0 0.28 0.04 0 
0.3 0.04 0 0.32 0.04 0 0.34 0.04 0 
0.36 0.04 0 0.38 0.04 0 0.4 0.04 0 
0.42 0.04 0 0.44 0.04 0 0.46 0.04 0 
0.48 0.04 0 0.5 0.04 0 0.52 0.04 0 
0.54 0.04 0 0.56 0.04 0 0.58 0.04 0 
0.6 0.04 0 0.62 0.04 0 0.64 0.04 0 
0.66 0.04 0 0.68 0.04 0 0.7 0.04 0 
0.72 0.04 0 0.74 0.04 0 0.76 0.04 0 
0.78 0.04 0 0.8 0.04 0 0.82 0.04 0 
0.84 0.04 0 0.86 0.04 0 0.88 0.04 0 
0.9 0.04 0 0.92 0.04 0 0.94 0.04 0 
0.96 0.04 0 0.98 0.04 0 1 0.04 0 
0 0.06 0 0.02 0.06 0 0.04 0.06 0 
0.06 0.06 0 0.08 0.06 0 0.1 0.06 0 
0.12 0.06 0 0.14 0.06 0 0.16 0.06 0 
0.18 0.06 0 0.2 0.06 0 0.22 0.06 0 
0.24 0.06 0 0.26 0.06 0 0.28 0.06 0 
0.3 0.06 0 0.32 0.06 0 0.34 0.06 0 
0.36 0.06 0 0.38 0.06 0 0.4 0.06 0 
0.42 0.06 0 0.44 0.06 0 0.46 0.06 0 
0.48 0.06 0 0.5 0.06 0 0.52 0.06 0 
0.54 0.06 0 0.56 0.06 0 0.58 0.06 0 
0.6 0.06 0 0.62 0.06 0 0.64 0.06 0 
0.66 0.06 0 0.68 0.06 0 0.7 0.06 0 
0.72 0.06 0 0.74 0.06 0 0.76 0.06 0 
0.78 0.06 0 0.8 0.06 0 0.82 0.06 0 
0.84 0.06 0 0.86 0.06 0 0.88 0.06 0 
0.9 0.06 0 0.92 0.06 0 0.94 0.06 0 
0.96 0.06 0 0.98 0.06 0 1 0.06 0 
0 0.08 0 0.02 0.08 0 0.04 0.08 0 
0.06 0.08 0 0.08 0.08 0 0.1 0.08 0 
0.12 0.08 0 0.14 0.08 0 0.16 0.08 0 
0.18 0.08 0 0.2 0.08 0 0.22 0.08 0 
0.24 0.08 0 0.26 0.08 0 0.28 0.08 0 
0.3 0.08 0 0.32 0.08 0 0.34 0.08 0 
0.36 0.08 0 0.38 0.08 0 0.4 0.08 0 
0.42 0.08 0 0.44 0.08 0 0.46 0.08 0 
0.48 0.08 0 0.5 0.08 0 0.52 0.08 0 
0.54 0.08 0 0.56 0.08 0 0.58 0.08 0 
0.6 0.08 0 0.62 0.08 0 0.64 0.08 0 
0.66 0.08 0 0.68 0.08 0 0.7 0.08 0 
0.72 0.08 0 0.74 0.08 0 0.76 0.08 0 
0.78 0.08 0 0.8 0.08 0 0.82 0.08 0 
0.84 0.08 0 0.86 0.08 0 0.88 0.08 0 
0.9 0.08 0 0.92 0.08 0 0.94 0.08 0 
0.96 0.08 0 0.98 0.08 0 1 0.08 0 
0 0.1 0 0.02 0.1 0 0.04 0.1 0 
0.06 0.1 0 0.08 0.1 0 0.1 0.1 0 
0.12 0.1 0 0.14 0.1 0 0.16 0.1 0 
0.18 0.1 0 0.2 0.1 0 0.22 0.1 0 
0.24 0.1 0 0.26 0.1 0 0.28 0.1 0 
0.3 0.1 0 0.32 0.1 0 0.34 0.1 0 
0.36 0.1 0 0.38 0.1 0 0.4 0.1 0 
0.42 0.1 0 0.44 0.1 0 0.46 0.1 0 
0.48 0.1 0 0.5 0.1 0 0.52 0.1 0 
0.54 0.1 0 0.56 0.1 0 0.58 0.1 0 
0.6 0.1 0 0.62 0.1 0 0.64 0.1 0 
0.66 0.1 0 0.68 0.1 0 0.7 0.1 0 
0.72 0.1 0 0.74 0.1 0 0.76 0.1 0 
0.78 0.1 0 0.8 0.1 0 0.82 0.1 0 
0.84 0.1 0 0.86 0.1 0 0.88 0.1 0 
0.9 0.1 0 0.92 0.1 0 0.94 0.1 0 
0.96 0.1 0 0.98 0.1 0 1 0.1 0 
0 0.12 0 0.02 0.12 0 0.04 0.12 0 
0.06 0.12 0 0.08 0.12 0 0.1 0.12 0 
0.12 0.12 0 0.14 0.12 0 0.16 0.12 0 
0.18 0.12 0 0.2 0.12 0 0.22 0.12 0 
0.24 0.12 0 0.26 0.12 0 0.28 0.12 0 
0.3 0.12 0 0.32 0.12 0 0.34 0.12 0 
0.36 0.12 0 0.38 0.12 0 0.4 0.12 0 
0.42 0.12 0 0.44 0.12 0 0.46 0.12 0 
0.48 0.12 0 0.5 0.12 0 0.52 0.12 0 
0.54 0.12 0 0.56 0.12 0 0.58 0.12 0 
0.6 0.12 0 0.62 0.12 0 0.64 0.12 0 
0.66 0.12 0 0.68 0.12 0 0.7 0.12 0 
0.72 0.12 0 0.74 0.12 0 0.76 0.12 0 
0.78 0.12 0 0.8 0.12 0 0.82 0.12 0 
0.84 0.12 0 0.86 0.12 0 0.88 0.12 0 
0.9 0.12 0 0.92 0.12 0 0.94 0.12 0 
0.96 0.12 0 0.98 0.12 0 1 0.12 0 
0 0.14 0 0.02 0.14 0 0.04 0.14 0 
0.06 0.14 0 0.08 0.14 0 0.1 0.14 0 
0.12 0.14 0 0.14 0.14 0 0.16 0.14 0 
0.18 0.14 0 0.2 0.14 0 0.22 0.14 0 
0.24 0.14 0 0.26 0.14 0 0.28 0.14 0 
0.3 0.14 0 0.32 0.14 0 0.34 0.14 0 
0.36 0.14 0 0.38 0.14 0 0.4 0.14 0 
0.42 0.14 0 0.44 0.14 0 0.46 0.14 0 
0.48 0.14 0 0.5 0.14 0 0.52 0.14 0 
0.54 0.14 0 0.56 0.14 0 0.58 0.14 0 
0.6 0.14 0 0.62 0.14 0 0.64 0.14 0 
0.66 0.14 0 0.68 0.14 0 0.7 0.14 0 
0.72 0.14 0 0.74 0.14 0 0.76 0.14 0 
0.78 0.14 0 0.8 0.14 0 0.82 0.14 0 
0.84 0.14 0 0.86 0.14 0 0.88 0.14 0 
0.9 0.14 0 0.92 0.14 0 0.94 0.14 0 
0.96 0.14 0 0.98 0.14 0 1 0.14 0 
0 0.16 0 0.02 0.16 0 0.04 0.16 0 
0.06 0.16 0 0.08 0.16 0 0.1 0.16 0 
0.12 0.16 0 0.14 0.16 0 0.16 0.16 0 
0.18 0.16 0 0.2 0.16 0 0.22 0.16 0 
0.24 0.16 0 0.26 0.16 0 0.28 0.16 0 
0.3 0.16 0 0.32 0.16 0 0.34 0.16 0 
0.36 0.16 0 0.38 0.16 0 0.4 0.16 0 
0.42 0.16 0 0.44 0.16 0 0.46 0.16 0 
0.48 0.16 0 0.5 0.16 0 0.52 0.16 0 
0.54 0.16 0 0.56 0.16 0 0.58 0.16 0 
0.6 0.16 0 0.62 0.16 0 0.64 0.16 0 
0.66 0.16 0 0.68 0.16 0 0.7 0.16 0 
0.72 0.16 0 0.74 0.16 0 0.76 0.16 0 
0.78 0.16 0 0.8 0.16 0 0.82 0.16 0 
0.84 0.16 0 0.86 0.16 0 0.88 0.16 0 
0.9 0.16 0 0.92 0.16 0 0.94 0.16 0 
0.96 0.16 0 0.98 0.16 0 1 0.16 0 
0 0.18 0 0.02 0.18 0 0.04 0.18 0 
0.06 0.18 0 0.08 0.18 0 0.1 0.18 0 
0.12 0.18 0 0.14 0.18 0 0.16 0.18 0 
0.18 0.18 0 0.2 0.18 0 0.22 0.18 0 
0.24 0.18 0 0.26 0.18 0 0.28 0.18 0 
0.3 0.18 0 0.32 0.18 0 0.34 0.18 0 
0.36 0.18 0 0.38 0.18 0 0.4 0.18 0 
0.42 0.18 0 0.44 0.18 0 0.46 0.18 0 
0.48 0.18 0 0.5 0.18 0 0.52 0.18 0 
0.54 0.18 0 0.56 0.18 0 0.58 0.18 0 
0.6 0.18 0 0.62 0.18 0 0.64 0.18 0 
0.66 0.18 0 0.68 0.18 0 0.7 0.18 0 
0.72 0.18 0 0.74 0.18 0 0.76 0.18 0 
0.78 0.18 0 0.8 0.18 0 0.82 0.18 0 
0.84 0.18 0 0.86 0.18 0 0.88 0.18 0 
0.9 0.18 0 0.92 0.18 0 0.94 0.18 0 
0.96 0.18 0 0.98 0.18 0 1 0.18 0 
0 0.2 0 0.02 0.2 0 0.04 0.2 0 
0.06 0.2 0 0.08 0.2 0 0.1 0.2 0 
0.12 0.2 0 0.14 0.2 0 0.16 0.2 0 
0.18 0.2 0 0.2 0.2 0 0.22 0.2 0 
0.24 0.2 0 0.26 0.2 0 0.28 0.2 0 
0.3 0.2 0 0.32 0.2 0 0.34 0.2 0 
0.36 0.2 0 0.38 0.2 0 0.4 0.2 0 
0.42 0.2 0 0.44 0.2 0 0.46 0.2 0 
0.48 0.2 0 0.5 0.2 0 0.52 0.2 0 
0.54 0.2 0 0.56 0.2 0 0.58 0.2 0 
0.6 0.2 0 0.62 0.2 0 0.64 0.2 0 
0.66 0.2 0 0.68 0.2 0 0.7 0.2 0 
0.72 0.2 0 0.74 0.2 0 0.76 0.2 0 
0.78 0.2 0 0.8 0.2 0 0.82 0.2 0 
0.84 0.2 0 0.86 0.2 0 0.88 0.2 0 
0.9 0.2 0 0.92 0.2 0 0.94 0.2 0 
0.96 0.2 0 0.98 0.2 0 1 0.2 0 
0 0.22 0 0.02 0.22 0 0.04 0.22 0 
0.06 0.22 0 0.08 0.22 0 0.1 0.22 0 
0.12 0.22 0 0.14 0.22 0 0.16 0.22 0 
0.18 0.22 0 0.2 0.22 0 0.22 0.22 0 
0.24 0.22 0 0.26 0.22 0 0.28 0.22 0 
0.3 0.22 0 0.32 0.22 0 0.34 0.22 0 
0.36 0.22 0 0.38 0.22 0 0.4 0.22 0 
0.42 0.22 0 0.44 0.22 0 0.46 0.22 0 
0.48 0.22 0 0.5 0.22 0 0.52 0.22 0 
0.54 0.22 0 0.56 0.22 0 0.58 0.22 0 
0.6 0.22 0 0.62 0.22 0 0.64 0.22 0 
0.66 0.22 0 0.68 0.22 0 0.7 0.22 0 
0.72 0.22 0 0.74 0.22 0 0.76 0.22 0 
0.78 0.22 0 0.8 0.22 0 0.82 0.22 0 
0.84 0.22 0 0.86 0.22 0 0.88 0.22 0 
0.9 0.22 0 0.92 0.22 0 0.94 0.22 0 
0.96 0.22 0 0.98 0.22 0 1 0.22 0 
0 0.24 0 0.02 0.24 0 0.04 0.24 0 
0.06 0.24 0 0.08 0.24 0 0.1 0.24 0 
0.12 0.24 0 0.14 0.24 0 0.16 0.24 0 
0.18 0.24 0 0.2 0.24 0 0.22 0.24 0 
0.24 0.24 0 0.26 0.24 0 0.28 0.24 0 
0.3 0.24 0 0.32 0.24 0 0.34 0.24 0 
0.36 0.24 0 0.38 0.24 0 0.4 0.24 0 
0.42 0.24 0 0.44 0.24 0 0.46 0.24 0 
0.48 0.24 0 0.5 0.24 0 0.52 0.24 0 
0.54 0.24 0 0.56 0.24 0 0.58 0.24 0 
0.6 0.24 0 0.62 0.24 0 0.64 0.24 0 
0.66 0.24 0 0.68 0.24 0 0.7 0.24 0 
0.72 0.24 0 0.74 0.24 0 0.76 0.24 0 
0.78 0.24 0 0.8 0.24 0 0.82 0.24 0 
0.84 0.24 0 0.86 0.24 0 0.88 0.24 0 
0.9 0.24 0 0.92 0.24 0 0.94 0.24 0 
0.96 0.24 0 0.98 0.24 0 1 0.24 0 
0 0.26 0 0.02 0.26 0 0.04 0.26 0 
0.06 0.26 0 0.08 0.26 0 0.1 0.26 0 
0.12 0.26 0 0.14 0.26 0 0.16 0.26 0 
0.18 0.26 0 0.2 0.26 0 0.22 0.26 0 
0.24 0.26 0 0.26 0.26 0 0.28 0.26 0 
0.3 0.26 0 0.32 0.26 0 0.34 0.26 0 
0.36 0.26 0 0.38 0.26 0 0.4 0.26 0 
0.42 0.26 0 0.44 0.26 0 0.46 0.26 0 
0.48 0.26 0 0.5 0.26 0 0.52 0.26 0 
0.54 0.26 0 0.56 0.26 0 0.58 0.26 0 
0.6 0.26 0 0.62 0.26 0 0.64 0.26 0 
0.66 0.26 0 0.68 0.26 0 0.7 0.26 0 
0.72 0.26 0 0.74 0.26 0 0.76 0.26 0 
0.78 0.26 0 0.8 0.26 0 0.82 0.26 0 
0.84 0.26 0 0.86 0.26 0 0.88 0.26 0 
0.9 0.26 0 0.92 0.26 0 0.94 0.26 0 
0.96 0.26 0 0.98 0.26 0 1 0.26 0 
0 0.28 0 0.02 0.28 0 0.04 0.28 0 
0.06 0.28 0 0.08 0.28 0 0.1 0.28 0 
0.12 0.28 0 0.14 0.28 0 0.16 0.28 0 
0.18 0.28 0 0.2 0.28 0 0.22 0.28 0 
0.24 0.28 0 0.26 0.28 0 0.28 0.28 0 
0.3 0.28 0 0.32 0.28 0 0.34 0.28 0 
0.36 0.28 0 0.38 0.28 0 0.4 0.28 0 
0.42 0.28 0 0.44 0.28 0 0.46 0.28 0 
0.48 0.28 0 0.5 0.28 0 0.52 0.28 0 
0.54 0.28 0 0.56 0.28 0 0.58 0.28 0 
0.6 0.28 0 0.62 0.28 0 0.64 0.28 0 
0.66 0.28 0 0.68 0.28 0 0.7 0.28 0 
0.72 0.28 0 0.74 0.28 0 0.76 0.28 0 
0.78 0.28 0 0.8 0.28 0 0.82 0.28 0 
0.84 0.28 0 0.86 0.28 0 0.88 0.28 0 
0.9 0.28 0 0.92 0.28 0 0.94 0.28 0 
0.96 0.28 0 0.98 0.28 0 1 0.28 0 
0 0.3 0 0.02 0.3 0 0.04 0.3 0 
0.06 0.3 0 0.08 0.3 0 0.1 0.3 0 
0.12 0.3 0 0.14 0.3 0 0.16 0.3 0 
0.18 0.3 0 0.2 0.3 0 0.22 0.3 0 
0.24 0.3 0 0.26 0.3 0 0.28 0.3 0 
0.3 0.3 0 0.32 0.3 0 0.34 0.3 0 
0.36 0.3 0 0.38 0.3 0 0.4 0.3 0 
0.42 0.3 0 0.44 0.3 0 0.46 0.3 0 
0.48 0.3 0 0.5 0.3 0 0.52 0.3 0 
0.54 0.3 0 0.56 0.3 0 0.58 0.3 0 
0.6 0.3 0 0.62 0.3 0 0.64 0.3 0 
0.66 0.3 0 0.68 0.3 0 0.7 0.3 0 
0.72 0.3 0 0.74 0.3 0 0.76 0.3 0 
0.78 0.3 0 0.8 0.3 0 0.82 0.3 0 
0.84 0.3 0 0.86 0.3 0 0.88 0.3 0 
0.9 0.3 0 0.92 0.3 0 0.94 0.3 0 
0.96 0.3 0 0.98 0.3 0 1 0.3 0 
0 0.32 0 0.02 0.32 0 0.04 0.32 0 
0.06 0.32 0 0.08 0.32 0 0.1 0.32 0 
0.12 0.32 0 0.14 0.32 0 0.16 0.32 0 
0.18 0.32 0 0.2 0.32 0 0.22 0.32 0 
0.24 0.32 0 0.26 0.32 0 0.28 0.32 0 
0.3 0.32 0 0.32 0.32 0 0.34 0.32 0 
0.36 0.32 0 0.38 0.32 0 0.4 0.32 0 
0.42 0.32 0 0.44 0.32 0 0.46 0.32 0 
0.48 0.32 0 0.5 0.32 0 0.52 0.32 0 
0.54 0.32 0 0.56 0.32 0 0.58 0.32 0 
[...]
CELL_DATA 2500
FIELD FieldData 1
pressure 1 2500 double
0.0061851385615 0.0061204296677 0.0059294988217 0.00565199507 0.005330060542 0.0049984080551 0.0046828521994 0.0044013988617 0.0041659818564 
0.0039841506579 0.0038604930315 0.0037977385101 0.0037975434289 0.0038609800968 0.0039887720016 0.0041813355011 0.0044386965975 0.0047603445601 
0.0051450661 0.0055907822917 0.0060943940705 0.0066516346731 0.0072569282825 0.0079032595487 0.008582061905 0.0092831283199 0.0099941832149 
0.010702035804 0.011392768412 0.012051854983 0.012664590161 0.013216618554 0.013694529327 0.014086482821 0.014382834078 0.014576716384 
0.014664548382 0.014646432045 0.014526416456 0.014312613604 0.014017166584 0.013656086083 0.013248984634 0.012818744186 0.012391149419 
0.011994388265 0.011658288695 0.011412392331 0.011280787307 0.01126837993 0.0062534413741 0.0061853835117 0.006020429594 0.0057902022156 
0.0055249957849 0.005250611478 0.0049872802488 0.0047500447753 0.0045497043911 0.0043938318809 0.0042876657226 0.0042348143493 0.0042377621737 
0.0042981948424 0.0044171795389 0.0045952422134 0.0048323764932 0.0051280058559 0.0054809086885 0.005889110286 0.0063497475748 0.0068589174987 
0.0074115261569 0.0080011593784 0.0086199964422 0.0092587922116 0.0099059811123 0.010549591063 0.011177051057 0.011775274269 0.012331074296 
0.012831650224 0.013265122624 0.013621094168 0.013891203787 0.014069640811 0.014153585799 0.014143548267 0.014043578295 0.013861338599 
0.013608035234 0.013298216437 0.012949456968 0.012581944351 0.012217964552 0.011881232632 0.011595873266 0.011384847953 0.011267322694 
0.011255962848 0.0064456298994 0.0063452727274 0.0061784217032 0.0059675281126 0.005733376045 0.0054942102353 0.0052652241216 0.0050585662633 
0.0048836315948 0.0047474754199 0.0046552577821 0.0046106583488 0.0046162266842 0.004673656897 0.0047839902791 0.0049477500336 0.0051650069292 
0.0054353734888 0.0057579296277 0.0061310928687 0.0065524552897 0.0070186133317 0.0075250160785 0.00806585325 0.0086340001103 0.0092210370468 
0.009815865628 0.010407514468 0.010984442854 0.011534626291 0.01204595329 0.01250668217 0.01290594312 0.013234261687 0.013484074077 
0.013650201636 0.013730251846 0.01372491634 0.013638142699 0.013477165742 0.013252394716 0.01297716294 0.012667353752 0.012340917432 
0.012017284505 0.011716660269 0.011459158423 0.011263809238 0.011147666475 0.01112616605 0.0067274916539 0.0065745459977 0.0063843973948 
0.006170364016 0.0059457829569 0.0057232104736 0.0055138000794 0.0053269241042 0.0051700599488 0.0050489067994 0.0049676483268 0.0049292689195 
0.0049358578685 0.004988867354 0.0050893065512 0.0052378580018 0.005434907262 0.0056804878539 0.0059741574261 0.0063148320958 0.0067006083627 
0.0071285978823 0.0075947933366 0.008093977072 0.0086196813263 0.0091642102788 0.0097168459715 0.010267403057 0.010805088563 0.011318602666 
0.011796519054 0.012227727345 0.012601920977 0.012910106246 0.013145102563 0.013302000615 0.013378544743 0.013375408681 0.01329633978 
0.013148156013 0.012940591048 0.01268599381 0.012398898505 0.012095486812 0.011792964919 0.011508877898 0.011260394322 0.011063651755 
0.010933374297 0.010883209193 0.0070619579277 0.006844061319 0.0066147692196 0.0063808106419 0.0061501822844 0.0059310251936 0.0057308048991 
0.0055558055803 0.0054109718914 0.0053000194934 0.005225682877 0.0051899907934 0.0051945083953 0.0052405204015 0.0053291424035 0.005461351964 
0.0056379403388 0.0058593981825 0.0061257586936 0.006436424257 0.0067899972772 0.0071841289141 0.0076153939415 0.0080791980717 0.0085697256092 
0.0090799379602 0.0095994625492 0.01011867018 0.010627265015 0.011114373385 0.011568916162 0.011980048043 0.012337645297 0.01263281671 
0.012858406717 0.013009455769 0.013083582065 0.013081251123 0.013005905695 0.012863938376 0.012664501317 0.012419160808 0.012141417246 
0.011846121284 0.011548824212 0.011265106564 0.01100993738 0.010797133353 0.010639004652 0.010546207861 0.0074145235451 0.007124742249 
0.0068464930843 0.0065822817938 0.0063359573273 0.0061116423292 0.0059130378194 0.0057431091252 0.0056040905276 0.0054976623616 0.0054251663342 
0.005387786537 0.0053866748981 0.0054230195362 0.0054980546307 0.0056130112041 0.005769015498 0.005966949269 0.0062072893217 0.0064899402207 
0.0068140686776 0.0071779456552 0.0075788028778 0.0080127132378 0.0084745075382 0.0089577410459 0.0094523691846 0.0099490764607 0.010437850665 
0.010907992561 0.011348486066 0.011748441163 0.012097590685 0.012386815138 0.012608663018 0.012757829327 0.012831553219 0.012829897521 
0.0127558792 0.012615430409 0.012417183508 0.01217208934 0.011892894135 0.01159351416 0.011288357604 0.010991648374 0.010716805363 
0.010475919204 0.010279330287 0.010135191145 0.0077550873389 0.0073911879743 0.0070598029836 0.0067602119858 0.0064924655812 0.0062567912907 
0.0060532729744 0.0058818167599 0.0057422778506 0.0056346148171 0.0055590008493 0.0055158819714 0.0055059949846 0.0055303524877 0.0055901927458 
0.0056868923455 0.0058218454133 0.0059963170107 0.0062112779611 0.0064672256082 0.0067639949537 0.0071005679412 0.0074748928044 0.0078837282707 
0.008322528039 0.0087853793623 0.0092625800814 0.0097448919778 0.0102224201 0.010684438733 0.011119760719 0.011517187444 0.011866021269 
0.012156613968 0.012380916771 0.01253299178 0.012609441716 0.012609716265 0.012536259783 0.012394476447 0.01219250443 0.011940809299 
0.011651625949 0.011338295148 0.011014552801 0.010693833417 0.010388641049 0.010110015888 0.0098670732631 0.0096665008381 0.0080589254973 
0.0076223112374 0.0072372082755 0.0068998382462 0.0066067023438 0.0063545427095 0.0061403717412 0.005961593036 0.0058161212408 0.0057024478279 
0.0056196561582 0.0055674101347 0.0055459293464 0.0055559460306 0.0055986333211 0.0056754997459 0.0057882512504 0.0059386241549 0.0061281920241 
0.0063581500614 0.0066290849316 0.0069407430076 0.007291812925 0.007679738441 0.0081005757539 0.0085489072571 0.0090154476586 0.0094908188253 
0.0099651252688 0.010427459359 0.010866268956 0.011269816641 0.011626713066 0.011926497309 0.012160227871 0.012321040955 0.012404628643 
0.012409590196 0.012337616 0.012193475497 0.011984797623 0.011721653437 0.011415972676 0.011080845819 0.010729776807 0.010375954425 
0.010031598909 0.0097074110502 0.0094121012799 0.0091519082788 0.008305832677 0.0077995801251 0.0073615185041 0.0069850307949 0.0066635800962 
0.0063910492947 0.0061619633445 0.0059716401999 0.0058162644169 0.0056929058627 0.0055995169982 0.0055349239073 0.0054988031471 0.0054916277431 
0.0055145720266 0.0055693750611 0.0056581669861 0.0057832624749 0.0059469252536 0.0061511102732 0.006397194994 0.006685714493 0.0070161152561 
0.0073865410868 0.0077936628416 0.0082325631026 0.0086945218131 0.0091698229081 0.0096484942133 0.010119328026 0.010570245601 0.01098876652 
0.011362566373 0.011680095279 0.011931219503 0.012107839914 0.012204435543 0.012218479893 0.012150683109 0.012005025038 0.011788562745 
0.011511019501 0.011184187384 0.010821198832 0.010435738379 0.010041269756 0.0096503417286 0.0092740062713 0.0089213363374 0.0085989745889 
0.0084780576833 0.0079053715868 0.0074154862644 0.0069994034299 0.0066480746624 0.0063529701967 0.0061064113374 0.0059017501634 0.0057334600019 
0.0055971870812 0.0054897851566 0.0054093254621 0.0053550635111 0.0053273517242 0.0053275000702 0.005357593825 0.0054202765155 0.0055185030809 
0.0056552679005 0.005833315264 0.0060548432996 0.0063212135287 0.0066326776314 0.0069881327135 0.0073849166642 0.0078186562408 0.0082814163028 
0.0087629624067 0.0092532066373 0.009740558398 0.010212282307 0.010654975723 0.011055150979 0.011399895656 0.011677572744 0.011878512267 
0.011995638337 0.012024973119 0.011965962984 0.011821583524 0.011598199441 0.011305180724 0.010954304986 0.010559002774 0.010133522189 
0.009692095798 0.0092481825655 0.0088138288746 0.0083991488781 0.0080118742457 0.0085588205809 0.0079228135255 0.0073828491169 0.0069278880193 
0.0065465899142 0.0062281167049 0.0059626064958 0.0057414497909 0.0055574589631 0.0054049776658 0.0052799370411 0.0051798477384 0.0051037218657 
0.0050519323584 0.0050260250805 0.0050284968331 0.0050625459522 0.0051317982224 0.0052400111737 0.0053907626638 0.0055871319575 0.0058313822819 
0.0061246547964 0.0064666858863 0.0068555619666 0.0072875275273 0.0077557194661 0.0082492318436 0.0087578632531 0.0092695987598 0.0097709530793 
0.010247450052 0.010684225969 0.011066732299 0.011381500687 0.011616920488 0.011763968858 0.011816828 0.011773325469 0.011635143356 
0.011407761406 0.011100126103 0.010724069608 0.01029353393 0.0098236802228 0.0093299744228 0.0088273335509 0.0083293906584 0.0078478944594 
0.0073922118214 0.0085321902244 0.0078364339387 0.0072490690947 0.0067570146502 0.0063465784115 0.0060045620286 0.0057189268199 0.005479197531 
0.0052767043302 0.0051047105193 0.0049584410425 0.0048350209891 0.0047333408142 0.0046538700323 0.0045984373503 0.0045699859522 0.0045723054267 
0.0046097399495 0.004686874068 0.0048082001077 0.0049777731232 0.005198860943 0.0054735997864 0.0058026694641 0.0061850058422 0.006617572037 
0.007094944899 0.0076054336437 0.0081387786641 0.008682550507 0.0092224644246 0.009742852038 0.010227278804 0.010659286896 0.011023229215 
0.011305144871 0.011493612809 0.011580510923 0.01156160555 0.011436903407 0.011210715867 0.010891413329 0.010490882627 0.010023737344 
0.0095063622847 0.0089558916162 0.0083892191918 0.0078221172621 0.0072685000966 0.0067398220804 0.0083835797584 0.0076323978369 0.0070010153658 
0.0064741365847 0.0060356391964 0.0056699906555 0.0053631012565 0.0051028246544 0.004879224325 0.0046846737061 0.0045138314264 0.0043635259699 
0.0042325808487 0.004121603382 0.0040327485916 0.0039694601126 0.0039361863072 0.0039380705419 0.0039806166571 0.0040693325461 0.00420935639 
0.0044050726823 0.0046597290471 0.0049750687301 0.0053509974878 0.0057853071959 0.0062745514817 0.0068061271378 0.0073698588251 0.0079529740263 
0.0085403895189 0.0091151654411 0.0096591262883 0.010153637526 0.010580509342 0.010922980046 0.011166713685 0.01130073203 0.011318193413 
0.011216933444 0.010999697341 0.010674021122 0.010251757076 0.0097482822449 0.0091814690734 0.0085705257582 0.007934822096 0.0072928011801 
0.0066610411472 0.0060534846062 0.0080998900114 0.0072980996777 0.0066262995097 0.0060669092749 0.0056014370851 0.0052121551778 0.0048830992913 
0.0046006241715 0.0043536640217 0.0041337951834 0.0039351683769 0.0037543598372 0.0035901744759 0.0034434185371 0.003316647222 0.0032138870385 
0.0031403321322 0.0031020147998 0.003105450958 0.0031572619181 0.0032637752731 0.0034306108646 0.0036622617065 0.0039616834994 0.0043299104952 
0.0047657193268 0.0052681266079 0.0058237296404 0.0064226324107 0.0070518446698 0.0076955416554 0.0083354832109 0.008951620101 0.0095228913049 
0.010028192704 0.010447474419 0.010762901223 0.010959989837 0.011028622226 0.010963829501 0.010766250294 0.010442192594 0.010003268385 
0.0094656207767 0.0088488154167 0.0081745105209 0.0074650421131 0.0067420566484 0.0060252928654 0.0053315683254 0.0076691982183 0.0068217616597 
0.0061131554433 0.005523614238 0.0050324171312 0.0046197820524 0.0042679874917 0.0039619732447 0.003689599765 0.0034416891354 0.0032119319552 
0.0029967153788 0.0027949040433 0.0026075889238 0.0024378099511 0.0022902550221 0.0021709370711 0.0020868493422 0.0020455974621 0.0020550066919 
0.0021227044667 0.0022556817996 0.0024598407574 0.0027395388318 0.0030971462488 0.0035326454136 0.0040477173786 0.0046288109442 0.0052664885047 
0.0059477116068 0.0066560392767 0.007371971267 0.0080735089096 0.0087369512349 0.009337916331 0.009852552535 0.010258876675 0.010538148796 
0.010676169064 0.010664368104 0.010500562515 0.010189267153 0.0097414962822 0.0091740434482 0.0085082962991 0.0077687043973 0.0069810607546 
0.0061707703716 0.0053612582782 0.0045726234902 0.0070805284668 0.0061925285692 0.0054508898703 0.004833804072 0.0043184263577 0.0038829950498 
0.0035080832839 0.0031772587118 0.0028773561197 0.0025985064794 0.0023340195245 0.0020801810129 0.0018359997971 0.0016029237035 0.0013845346079 
0.0011862283902 0.0010148811788 0.00087849902719 0.00078584569336 0.00074604325528 0.00076814267111 0.00086066496802 0.0010311169993 0.0012854881561 
0.0016277339747 0.0020592432199 0.002584320872 0.0031906238529 0.003869171724 0.0046071147095 0.0053876226532 0.0061900726663 0.0069905239731 
0.0077624834974 0.0084779591609 0.0091087763989 0.0096281025161 0.010012087774 0.010241497041 0.010303178099 0.010191200105 0.0099075058481 
0.0094619588001 0.0088717301036 0.00816005376 0.0073544653227 0.0064847109671 0.0055805518256 0.0046696831088 0.0037759427694 0.006324033728 
0.0054008824636 0.0046303220578 0.0039885868751 0.0034507659859 0.0029931712694 0.002594730882 0.0022377141402 0.0019080168384 0.0015951714338 
0.0012921942283 0.00099534109742 0.00070381500099 0.00041945054153 0.0001463893879 -0.00010924808941 -0.00033969699829 -0.00053589518094 -0.00068785273836 
-0.00078505218688 -0.0008168848245 -0.00077312533103 -0.00064444297655 -0.00042294434461 -0.00010274335938 0.00031942101518 0.00084850948442 0.0014779589735 
0.0021976065241 0.0029953253053 0.0038542915844 0.0047530266294 0.0056657659885 0.0065631634559 0.007413346215 0.0081833165535 0.0088406597957 
0.009355473183 0.0097023817743 0.0098624625105 0.0098248666002 0.0095879245532 0.0091595469395 0.0085568014908 0.007804648417 0.0069339346109 
0.0059788585485 0.0049741931992 0.0039525735405 0.0029421147568 0.0053913922655 0.004438938129 0.0036438627978 0.0029805101122 0.0024219903649 
0.0019427946756 0.0015203228262 0.001135662011 0.00077387309076 0.00042397208998 7.8736248334e-05 -0.00026558164738 -0.00060957918522 -0.0009510410121 
-0.0012852722189 -0.0016054259585 -0.0019028313581 -0.0021673324242 -0.0023876497943 -0.002551776188 -0.0026474139273 -0.0026624595529 -0.0025855357372 
-0.0024065623736 -0.0021173407802 -0.0017120697075 -0.0011874946686 -0.00053939275551 0.0002191337964 0.0010774685078 0.0020193273881 0.0030227741477 
0.0040604716987 0.005100283362 0.0061062851716 0.0070402162836 0.0078633517826 0.008538727506 0.0090335825169 0.0093218189062 0.0093862228741 
0.0092201610582 0.0088284777871 0.0082273837886 0.0074432453494 0.0065103397411 0.0054678064759 0.004356153515 0.0032137358742 0.0020735942813 
0.0042760719378 0.0033004774638 0.002485409833 0.0018034617573 0.0012259352549 0.00072567223731 0.00027869623568 -0.00013496854915 -0.00053101559631 
-0.00092090202207 -0.0013120773877 -0.0017083012947 -0.0021099923283 -0.0025145768515 -0.002916824609 -0.0033091712142 -0.0036820360076 -0.0040241478505 
-0.0043228927635 -0.0045646970807 -0.0047354582358 -0.0048210326217 -0.0048077856085 -0.0046832022372 -0.0044365475906 -0.004059552728 -0.0035471017532 
-0.0028889543328 -0.0020969491993 -0.0011799774951 -0.00015326542685 0.00096130564609 0.002135229596 0.0033338019456 0.0045170233766 0.0056410410532 
0.006660145657 0.0075292800054 0.0082069356858 0.0086582239943 0.0088578201609 0.0087924154771 0.0084622945857 0.0078817067333 0.007077830488 
0.0060883306963 0.0049577377501 0.0037330850351 0.0024593596595 0.0011753150096 0.0029733844608 0.0019809185728 0.0011503742141 0.00045283317042 
-0.00014197691466 -0.00066266674549 -0.0011344437411 -0.0015782537364 -0.0020104967402 -0.0024430896605 -0.0028837190233 -0.0033361811519 -0.0038007473174 
-0.0042745202964 -0.0047517692541 -0.0052242438335 -0.0056814768693 -0.0061110897365 -0.006499116831 -0.006830366563 -0.0070888355843 -0.0072581909297 
-0.0073223314253 -0.0072660362528 -0.0070757084519 -0.0067402371405 -0.0062520851671 -0.0055946232813 -0.0047777028352 -0.0038073239272 -0.002696882327 
-0.001467514673 -0.00014830332726 0.0012239041923 0.002605207709 0.0039460060102 0.0051930505615 0.0062921977984 0.0071917632165 0.0078462643818 
0.0082202145301 0.008291517741 0.008053954156 0.0075182652438 0.0067114806243 0.0056743697972 0.0044572163999 0.0031144231661 0.0016986680684 
0.00025537106714 0.0014804984454 0.00047740387498 -0.00036412256647 -0.0010742120279 -0.0016844597627 -0.0022247391169 -0.0027213606988 -0.0031961655901 
-0.0036662265341 -0.0041439168226 -0.0046371790278 -0.0051498823986 -0.0056822005284 -0.0062309724363 -0.0067900326056 -0.007350510667 -0.0079011109112 
-0.0084283877386 -0.0089170369122 -0.0093502241618 -0.0097099724965 -0.0099776278629 -0.010134419883 -0.010162131141 -0.010043885536 -0.0097650628037 
-0.0093143261571 -0.0086735947837 -0.0078442084773 -0.0068293773426 -0.0056399994793 -0.004295641079 -0.0028251612005 -0.0012668860639 0.0003318100161 
0.0019156618966 0.003423525506 0.004791297911 0.0059556966348 0.0068587080116 0.0074523456274 0.0077031902203 0.0075960545911 0.0071360844561 
0.0063487176237 0.0052772003742 0.0039777701941 0.0025130639057 0.00094466125945 -0.00067420436594 -0.0002034625291 -0.0012110383504 -0.0020590826412 
-0.0027786245726 -0.0034023256714 -0.0039611307552 -0.0044823245189 -0.0049885675706 -0.005497574315 -0.0060221807909 -0.0065706233855 -0.0071469078707 
-0.0077511938372 -0.0083801538646 -0.0090272912863 -0.0096832170785 -0.01033589731 -0.010970889857 -0.01157159368 -0.012119535997 -0.0125947228 
-0.012976076774 -0.013241984148 -0.013370968422 -0.013342503446 -0.013137970804 -0.012741766896 -0.01213571938 -0.011309406903 -0.010262898761 
-0.0090034911794 -0.0075481041086 -0.0059243316848 -0.0041710424598 -0.0023383572523 -0.00048681021002 0.0013144901796 0.0029908303106 0.0044660161804 
0.0056675164901 0.0065322729192 0.0070125859476 0.0070812682243 0.0067351382652 0.0059959851572 0.0049084250863 0.003534582364 0.0019461554532 
0.00021498018936 -0.0015965345136 -0.0020772964877 -0.0030834219947 -0.0039336491849 -0.0046595662403 -0.0052946167153 -0.0058706025583 -0.0064156400808 
-0.00695313449 -0.0075014270424 -0.0080738525404 -0.0086790176296 -0.0093211708076 -0.010000583376 -0.010713897224 -0.011454421696 -0.012212379947 
-0.012975117419 -0.013727293391 -0.014451081561 -0.015126408045 -0.015731255708 -0.016242063115 -0.016634244581 -0.016882854246 -0.016963408826 
-0.016852860611 -0.016530634515 -0.015979329475 -0.015175117452 -0.014113743002 -0.012797674651 -0.011239941147 -0.0094656123519 -0.0075128859524 
-0.0054335681408 -0.0032926943954 -0.0011670274777 0.00085779438305 0.0026915885891 0.0042453933826 0.005438365714 0.0062051909846 0.0065030548299 
0.0063169808797 0.0056622937774 0.0045832300378 0.0031473231944 0.0014360328985 -0.00046708027796 -0.0024888389106 -0.0041377060813 -0.0051368950416 
-0.0059852719795 -0.006714588385 -0.0073587386631 -0.0079501422118 -0.0085176048306 -0.0090852254596 -0.0096719986276 -0.010291843914 -0.01095386581 
-0.011662708759 -0.012418921836 -0.013219285519 -0.014057080605 -0.014922298798 -0.015801807983 -0.016679494371 -0.017536409253 -0.018350951036 
-0.019099114674 -0.019754840897 -0.020290497362 -0.020677522609 -0.02088726187 -0.020892024361 -0.020666414312 -0.020189132857 -0.019429518657 
-0.018374115542 -0.017019337575 -0.015373002594 -0.013456234074 -0.011305091197 -0.0089716608312 -0.0065242934654 -0.0040466325261 -0.0016350960807 
0.00060545338586 0.0025679434341 0.0041510350145 0.0052681800404 0.0058567356341 0.0058856581522 0.0053600867372 0.0043212957353 0.0028411555742 
0.0010113268923 -0.0010713790687 -0.0033211879844 -0.0063794352964 -0.0073669437273 -0.0082099172198 -0.0089398018045 -0.0095905701013 -0.010195013761 
-0.010782512595 -0.011377857406 -0.012000782233 -0.012665938357 -0.013383111459 -0.014157542979 -0.014990265565 -0.015878400536 -0.016815393827 
-0.017791187746 -0.018792340758 -0.01980211769 -0.020800579061 -0.021764702032 -0.022668567741 -0.02348365117 -0.024179250493 -0.024723093386 
-0.025082158438 -0.025223754702 -0.025116929684 -0.024734401934 -0.024045166469 -0.023020223532 -0.021649029303 -0.019932900492 -0.017887501032 
-0.01554507549 -0.012956259458 -0.010191092852 -0.0073387972508 -0.0045058525545 -0.0018119468549 0.00061647895442 0.0026550719028 0.0041923040206 