# vtk DataFile Version 4.1
vtk output
ASCII
DATASET STRUCTURED_GRID
DIMENSIONS 51 51 1
POINTS 2601 float
0 0 0 0.02 0 0 0.04 0 0 
0.06 0 0 0.08 0 0 0.1 0 0 
0.12 0 0 0.14 0 0 0.16 0 0 
0.18 0 0 0.2 0 0 0.22 0 0 
0.24 0 0 0.26 0 0 0.28 0 0 
0.3 0 0 0.32 0 0 0.34 0 0 
0.36 0 0 0.38 0 0 0.4 0 0 
0.42 0 0 0.44 0 0 0.46 0 0 
0.48 0 0 0.5 0 0 0.52 0 0 
0.54 0 0 0.56 0 0 0.58 0 0 
0.6 0 0 0.62 0 0 0.64 0 0 
0.66 0 0 0.68 0 0 0.7 0 0 
0.72 0 0 0.74 0 0 0.76 0 0 
0.78 0 0 0.8 0 0 0.82 0 0 
0.84 0 0 0.86 0 0 0.88 0 0 
0.9 0 0 0.92 0 0 0.94 0 0 
0.96 0 0 0.98 0 0 1 0 0 
0 0.02 0 0.02 0.02 0 0.04 0.02 0 
0.06 0.02 0 0.08 0.02 0 0.1 0.02 0 
0.12 0.02 0 0.14 0.02 0 0.16 0.02 0 
0.18 0.02 0 0.2 0.02 0 0.22 0.02 0 
0.24 0.02 0 0.26 0.02 0 0.28 0.02 0 
0.3 0.02 0 0.32 0.02 0 0.34 0.02 0 
0.36 0.02 0 0.38 0.02 0 0.4 0.02 0 
0.42 0.02 0 0.44 0.02 0 0.46 0.02 0 
0.48 0.02 0 0.5 0.02 0 0.52 0.02 0 
0.54 0.02 0 0.56 0.02 0 0.58 0.02 0 
0.6 0.02 0 0.62 0.02 0 0.64 0.02 0 
0.66 0.02 0 0.68 0.02 0 0.7 0.02 0 
0.72 0.02 0 0.74 0.02 0 0.76 0.02 0 
0.78 0.02 0 0.8 0.02 0 0.82 0.02 0 
0.84 0.02 0 0.86 0.02 0 0.88 0.02 0 
0.9 0.02 0 0.92 0.02 0 0.94 0.02 0 
0.96 0.02 0 0.98 0.02 0 1 0.02 0 
0 0.04 0 0.02 0.04 0 0.04 0.04 0 
0.06 0.04 0 0.08 0.04 0 0.1 0.04 0 
0.12 0.04 0 0.14 0.04 0 0.16 0.04 0 
0.18 0.04 0 0.2 0.04 0 0.22 0.04 0 
0.24 0.04 0 0.26 0.04 0 0.28 0.04 0 
0.3 0.04 0 0.32 0.04 0 0.34 0.04 0 
0.36 0.04 0 0.38 0.04 0 0.4 0.04 0 
0.42 0.04 0 0.44 0.04 0 0.46 0.04 0 
0.48 0.04 0 0.5 0.04 0 0.52 0.04 0 
0.54 0.04 0 0.56 0.04 0 0.58 0.04 0 
0.6 0.04 0 0.62 0.04 0 0.64 0.04 0 
0.66 0.04 0 0.68 0.04 0 0.7 0.04 0 
0.72 0.04 0 0.74 0.04 0 0.76 0.04 0 
0.78 0.04 0 0.8 0.04 0 0.82 0.04 0 
0.84 0.04 0 0.86 0.04 0 0.88 0.04 0 
0.9 0.04 0 0.92 0.04 0 0.94 0.04 0 
0.96 0.04 0 0.98 0.04 0 1 0.04 0 
0 0.06 0 0.02 0.06 0 0.04 0.06 0 
0.06 0.06 0 0.08 0.06 0 0.1 0.06 0 
0.12 0.06 0 0.14 0.06 0 0.16 0.06 0 
0.18 0.06 0 0.2 0.06 0 0.22 0.06 0 
0.24 0.06 0 0.26 0.06 0 0.28 0.06 0 
0.3 0.06 0 0.32 0.06 0 0.34 0.06 0 
0.36 0.06 0 0.38 0.06 0 0.4 0.06 0 
0.42 0.06 0 0.44 0.06 0 0.46 0.06 0 
0.48 0.06 0 0.5 0.06 0 0.52 0.06 0 
0.54 0.06 0 0.56 0.06 0 0.58 0.06 0 
0.6 0.06 0 0.62 0.06 0 0.64 0.06 0 
0.66 0.06 0 0.68 0.06 0 0.7 0.06 0 
0.72 0.06 0 0.74 0.06 0 0.76 0.06 0 
0.78 0.06 0 0.8 0.06 0 0.82 0.06 0 
0.84 0.06 0 0.86 0.06 0 0.88 0.06 0 
0.9 0.06 0 0.92 0.06 0 0.94 0.06 0 
0.96 0.06 0 0.98 0.06 0 1 0.06 0 
0 0.08 0 0.02 0.08 0 0.04 0.08 0 
0.06 0.08 0 0.08 0.08 0 0.1 0.08 0 
0.12 0.08 0 0.14 0.08 0 0.16 0.08 0 
0.18 0.08 0 0.2 0.08 0 0.22 0.08 0 
0.24 0.08 0 0.26 0.08 0 0.28 0.08 0 
0.3 0.08 0 0.32 0.08 0 0.34 0.08 0 
0.36 0.08 0 0.38 0.08 0 0.4 0.08 0 
0.42 0.08 0 0.44 0.08 0 0.46 0.08 0 
0.48 0.08 0 0.5 0.08 0 0.52 0.08 0 
0.54 0.08 0 0.56 0.08 0 0.58 0.08 0 
0.6 0.08 0 0.62 0.08 0 0.64 0.08 0 
0.66 0.08 0 0.68 0.08 0 0.7 0.08 0 
0.72 0.08 0 0.74 0.08 0 0.76 0.08 0 
0.78 0.08 0 0.8 0.08 0 0.82 0.08 0 
0.84 0.08 0 0.86 0.08 0 0.88 0.08 0 
0.9 0.08 0 0.92 0.08 0 0.94 0.08 0 
0.96 0.08 0 0.98 0.08 0 1 0.08 0 
0 0.1 0 0.02 0.1 0 0.04 0.1 0 
0.06 0.1 0 0.08 0.1 0 0.1 0.1 0 
0.12 0.1 0 0.14 0.1 0 0.16 0.1 0 
0.18 0.1 0 0.2 0.1 0 0.22 0.1 0 
0.24 0.1 0 0.26 0.1 0 0.28 0.1 0 
0.3 0.1 0 0.32 0.1 0 0.34 0.1 0 
0.36 0.1 0 0.38 0.1 0 0.4 0.1 0 
0.42 0.1 0 0.44 0.1 0 0.46 0.1 0 
0.48 0.1 0 0.5 0.1 0 0.52 0.1 0 
0.54 0.1 0 0.56 0.1 0 0.58 0.1 0 
0.6 0.1 0 0.62 0.1 0 0.64 0.1 0 
0.66 0.1 0 0.68 0.1 0 0.7 0.1 0 
0.72 0.1 0 0.74 0.1 0 0.76 0.1 0 
0.78 0.1 0 0.8 0.1 0 0.82 0.1 0 
0.84 0.1 0 0.86 0.1 0 0.88 0.1 0 
0.9 0.1 0 0.92 0.1 0 0.94 0.1 0 
0.96 0.1 0 0.98 0.1 0 1 0.1 0 
0 0.12 0 0.02 0.12 0 0.04 0.12 0 
0.06 0.12 0 0.08 0.12 0 0.1 0.12 0 
0.12 0.12 0 0.14 0.12 0 0.16 0.12 0 
0.18 0.12 0 0.2 0.12 0 0.22 0.12 0 
0.24 0.12 0 0.26 0.12 0 0.28 0.12 0 
0.3 0.12 0 0.32 0.12 0 0.34 0.12 0 
0.36 0.12 0 0.38 0.12 0 0.4 0.12 0 
0.42 0.12 0 0.44 0.12 0 0.46 0.12 0 
0.48 0.12 0 0.5 0.12 0 0.52 0.12 0 
0.54 0.12 0 0.56 0.12 0 0.58 0.12 0 
0.6 0.12 0 0.62 0.12 0 0.64 0.12 0 
0.66 0.12 0 0.68 0.12 0 0.7 0.12 0 
0.72 0.12 0 0.74 0.12 0 0.76 0.12 0 
0.78 0.12 0 0.8 0.12 0 0.82 0.12 0 
0.84 0.12 0 0.86 0.12 0 0.88 0.12 0 
0.9 0.12 0 0.92 0.12 0 0.94 0.12 0 
0.96 0.12 0 0.98 0.12 0 1 0.12 0 
0 0.14 0 0.02 0.14 0 0.04 0.14 0 
0.06 0.14 0 0.08 0.14 0 0.1 0.14 0 
0.12 0.14 0 0.14 0.14 0 0.16 0.14 0 
0.18 0.14 0 0.2 0.14 0 0.22 0.14 0 
0.24 0.14 0 0.26 0.14 0 0.28 0.14 0 
0.3 0.14 0 0.32 0.14 0 0.34 0.14 0 
0.36 0.14 0 0.38 0.14 0 0.4 0.14 0 
0.42 0.14 0 0.44 0.14 0 0.46 0.14 0 
0.48 0.14 0 0.5 0.14 0 0.52 0.14 0 
0.54 0.14 0 0.56 0.14 0 0.58 0.14 0 
0.6 0.14 0 0.62 0.14 0 0.64 0.14 0 
0.66 0.14 0 0.68 0.14 0 0.7 0.14 0 
0.72 0.14 0 0.74 0.14 0 0.76 0.14 0 
0.78 0.14 0 0.8 0.14 0 0.82 0.14 0 
0.84 0.14 0 0.86 0.14 0 0.88 0.14 0 
0.9 0.14 0 0.92 0.14 0 0.94 0.14 0 
0.96 0.14 0 0.98 0.14 0 1 0.14 0 
0 0.16 0 0.02 0.16 0 0.04 0.16 0 
0.06 0.16 0 0.08 0.16 0 0.1 0.16 0 
0.12 0.16 0 0.14 0.16 0 0.16 0.16 0 
0.18 0.16 0 0.2 0.16 0 0.22 0.16 0 
0.24 0.16 0 0.26 0.16 0 0.28 0.16 0 
0.3 0.16 0 0.32 0.16 0 0.34 0.16 0 
0.36 0.16 0 0.38 0.16 0 0.4 0.16 0 
0.42 0.16 0 0.44 0.16 0 0.46 0.16 0 
0.48 0.16 0 0.5 0.16 0 0.52 0.16 0 
0.54 0.16 0 0.56 0.16 0 0.58 0.16 0 
0.6 0.16 0 0.62 0.16 0 0.64 0.16 0 
0.66 0.16 0 0.68 0.16 0 0.7 0.16 0 
0.72 0.16 0 0.74 0.16 0 0.76 0.16 0 
0.78 0.16 0 0.8 0.16 0 0.82 0.16 0 
0.84 0.16 0 0.86 0.16 0 0.88 0.16 0 
0.9 0.16 0 0.92 0.16 0 0.94 0.16 0 
0.96 0.16 0 0.98 0.16 0 1 0.16 0 
0 0.18 0 0.02 0.18 0 0.04 0.18 0 
0.06 0.18 0 0.08 0.18 0 0.1 0.18 0 
0.12 0.18 0 0.14 0.18 0 0.16 0.18 0 
0.18 0.18 0 0.2 0.18 0 0.22 0.18 0 
0.24 0.18 0 0.26 0.18 0 0.28 0.18 0 
0.3 0.18 0 0.32 0.18 0 0.34 0.18 0 
0.36 0.18 0 0.38 0.18 0 0.4 0.18 0 
0.42 0.18 0 0.44 0.18 0 0.46 0.18 0 
0.48 0.18 0 0.5 0.18 0 0.52 0.18 0 
0.54 0.18 0 0.56 0.18 0 0.58 0.18 0 
0.6 0.18 0 0.62 0.18 0 0.64 0.18 0 
0.66 0.18 0 0.68 0.18 0 0.7 0.18 0 
0.72 0.18 0 0.74 0.18 0 0.76 0.18 0 
0.78 0.18 0 0.8 0.18 0 0.82 0.18 0 
0.84 0.18 0 0.86 0.18 0 0.88 0.18 0 
0.9 0.18 0 0.92 0.18 0 0.94 0.18 0 
0.96 0.18 0 0.98 0.18 0 1 0.18 0 
0 0.2 0 0.02 0.2 0 0.04 0.2 0 
0.06 0.2 0 0.08 0.2 0 0.1 0.2 0 
0.12 0.2 0 0.14 0.2 0 0.16 0.2 0 
0.18 0.2 0 0.2 0.2 0 0.22 0.2 0 
0.24 0.2 0 0.26 0.2 0 0.28 0.2 0 
0.3 0.2 0 0.32 0.2 0 0.34 0.2 0 
0.36 0.2 0 0.38 0.2 0 0.4 0.2 0 
0.42 0.2 0 0.44 0.2 0 0.46 0.2 0 
0.48 0.2 0 0.5 0.2 0 0.52 0.2 0 
0.54 0.2 0 0.56 0.2 0 0.58 0.2 0 
0.6 0.2 0 0.62 0.2 0 0.64 0.2 0 
0.66 0.2 0 0.68 0.2 0 0.7 0.2 0 
0.72 0.2 0 0.74 0.2 0 0.76 0.2 0 
0.78 0.2 0 0.8 0.2 0 0.82 0.2 0 
0.84 0.2 0 0.86 0.2 0 0.88 0.2 0 
0.9 0.2 0 0.92 0.2 0 0.94 0.2 0 
0.96 0.2 0 0.98 0.2 0 1 0.2 0 
0 0.22 0 0.02 0.22 0 0.04 0.22 0 
0.06 0.22 0 0.08 0.22 0 0.1 0.22 0 
0.12 0.22 0 0.14 0.22 0 0.16 0.22 0 
0.18 0.22 0 0.2 0.22 0 0.22 0.22 0 
0.24 0.22 0 0.26 0.22 0 0.28 0.22 0 
0.3 0.22 0 0.32 0.22 0 0.34 0.22 0 
0.36 0.22 0 0.38 0.22 0 0.4 0.22 0 
0.42 0.22 0 0.44 0.22 0 0.46 0.22 0 
0.48 0.22 0 0.5 0.22 0 0.52 0.22 0 
0.54 0.22 0 0.56 0.22 0 0.58 0.22 0 
0.6 0.22 0 0.62 0.22 0 0.64 0.22 0 
0.66 0.22 0 0.68 0.22 0 0.7 0.22 0 
0.72 0.22 0 0.74 0.22 0 0.76 0.22 0 
0.78 0.22 0 0.8 0.22 0 0.82 0.22 0 
0.84 0.22 0 0.86 0.22 0 0.88 0.22 0 
0.9 0.22 0 0.92 0.22 0 0.94 0.22 0 
0.96 0.22 0 0.98 0.22 0 1 0.22 0 
0 0.24 0 0.02 0.24 0 0.04 0.24 0 
0.06 0.24 0 0.08 0.24 0 0.1 0.24 0 
0.12 0.24 0 0.14 0.24 0 0.16 0.24 0 
0.18 0.24 0 0.2 0.24 0 0.22 0.24 0 
0.24 0.24 0 0.26 0.24 0 0.28 0.24 0 
0.3 0.24 0 0.32 0.24 0 0.34 0.24 0 
0.36 0.24 0 0.38 0.24 0 0.4 0.24 0 
0.42 0.24 0 0.44 0.24 0 0.46 0.24 0 
0.48 0.24 0 0.5 0.24 0 0.52 0.24 0 
0.54 0.24 0 0.56 0.24 0 0.58 0.24 0 
0.6 0.24 0 0.62 0.24 0 0.64 0.24 0 
0.66 0.24 0 0.68 0.24 0 0.7 0.24 0 
0.72 0.24 0 0.74 0.24 0 0.76 0.24 0 
0.78 0.24 0 0.8 0.24 0 0.82 0.24 0 
0.84 0.24 0 0.86 0.24 0 0.88 0.24 0 
0.9 0.24 0 0.92 0.24 0 0.94 0.24 0 
0.96 0.24 0 0.98 0.24 0 1 0.24 0 
0 0.26 0 0.02 0.26 0 0.04 0.26 0 
0.06 0.26 0 0.08 0.26 0 0.1 0.26 0 
0.12 0.26 0 0.14 0.26 0 0.16 0.26 0 
0.18 0.26 0 0.2 0.26 0 0.22 0.26 0 
0.24 0.26 0 0.26 0.26 0 0.28 0.26 0 
0.3 0.26 0 0.32 0.26 0 0.34 0.26 0 
0.36 0.26 0 0.38 0.26 0 0.4 0.26 0 
0.42 0.26 0 0.44 0.26 0 0.46 0.26 0 
0.48 0.26 0 0.5 0.26 0 0.52 0.26 0 
0.54 0.26 0 0.56 0.26 0 0.58 0.26 0 
0.6 0.26 0 0.62 0.26 0 0.64 0.26 0 
0.66 0.26 0 0.68 0.26 0 0.7 0.26 0 
0.72 0.26 0 0.74 0.26 0 0.76 0.26 0 
0.78 0.26 0 0.8 0.26 0 0.82 0.26 0 
0.84 0.26 0 0.86 0.26 0 0.88 0.26 0 
0.9 0.26 0 0.92 0.26 0 0.94 0.26 0 
0.96 0.26 0 0.98 0.26 0 1 0.26 0 
0 0.28 0 0.02 0.28 0 0.04 0.28 0 
0.06 0.28 0 0.08 0.28 0 0.1 0.28 0 
0.12 0.28 0 0.14 0.28 0 0.16 0.28 0 
0.18 0.28 0 0.2 0.28 0 0.22 0.28 0 
0.24 0.28 0 0.26 0.28 0 0.28 0.28 0 
0.3 0.28 0 0.32 0.28 0 0.34 0.28 0 
0.36 0.28 0 0.38 0.28 0 0.4 0.28 0 
0.42 0.28 0 0.44 0.28 0 0.46 0.28 0 
0.48 0.28 0 0.5 0.28 0 0.52 0.28 0 
0.54 0.28 0 0.56 0.28 0 0.58 0.28 0 
0.6 0.28 0 0.62 0.28 0 0.64 0.28 0 
0.66 0.28 0 0.68 0.28 0 0.7 0.28 0 
0.72 0.28 0 0.74 0.28 0 0.76 0.28 0 
0.78 0.28 0 0.8 0.28 0 0.82 0.28 0 
0.84 0.28 0 0.86 0.28 0 0.88 0.28 0 
0.9 0.28 0 0.92 0.28 0 0.94 0.28 0 
0.96 0.28 0 0.98 0.28 0 1 0.28 0 
0 0.3 0 0.02 0.3 0 0.04 0.3 0 
0.06 0.3 0 0.08 0.3 0 0.1 0.3 0 
0.12 0.3 0 0.14 0.3 0 0.16 0.3 0 
0.18 0.3 0 0.2 0.3 0 0.22 0.3 0 
0.24 0.3 0 0.26 0.3 0 0.28 0.3 0 
0.3 0.3 0 0.32 0.3 0 0.34 0.3 0 
0.36 0.3 0 0.38 0.3 0 0.4 0.3 0 
0.42 0.3 0 0.44 0.3 0 0.46 0.3 0 
0.48 0.3 0 0.5 0.3 0 0.52 0.3 0 
0.54 0.3 0 0.56 0.3 0 0.58 0.3 0 
0.6 0.3 0 0.62 0.3 0 0.64 0.3 0 
0.66 0.3 0 0.68 0.3 0 0.7 0.3 0 
0.72 0.3 0 0.74 0.3 0 0.76 0.3 0 
0.78 0.3 0 0.8 0.3 0 0.82 0.3 0 
0.84 0.3 0 0.86 0.3 0 0.88 0.3 0 
0.9 0.3 0 0.92 0.3 0 0.94 0.3 0 
0.96 0.3 0 0.98 0.3 0 1 0.3 0 
0 0.32 0 0.02 0.32 0 0.04 0.32 0 
0.06 0.32 0 0.08 0.32 0 0.1 0.32 0 
0.12 0.32 0 0.14 0.32 0 0.16 0.32 0 
0.18 0.32 0 0.2 0.32 0 0.22 0.32 0 
0.24 0.32 0 0.26 0.32 0 0.28 0.32 0 
0.3 0.32 0 0.32 0.32 0 0.34 0.32 0 
0.36 0.32 0 0.38 0.32 0 0.4 0.32 0 
0.42 0.32 0 0.44 0.32 0 0.46 0.32 0 
0.48 0.32 0 0.5 0.32 0 0.52 0.32 0 
0.54 0.32 0 0.56 0.32 0 0.58 0.32 0 
[...]
CELL_DATA 2500
FIELD FieldData 1
pressure 1 2500 double
0.0061843274854 0.0061197504202 0.0059297301912 0.0056532016151 0.005331731943 0.0049998380666 0.0046835149034 0.0044011393959 0.0041649961243 
0.0039828366712 0.0038592713218 0.0037969083317 0.0037972130962 0.0038610830018 0.0039891434396 0.0041817986824 0.0044391159158 0.0047606403342 
0.0051452099048 0.0055907882228 0.006094306346 0.0066515087216 0.0072568105484 0.0079031755559 0.0085820164393 0.009283113395 0.0099941866724 
0.010702046763 0.011392779521 0.012051862513 0.012664593024 0.013216617073 0.013694524359 0.014086475401 0.014382825341 0.014576707462 
0.014664540188 0.014646425073 0.014526410748 0.014312608881 0.014017162471 0.013656082283 0.013248981003 0.012818740698 0.01239114609 
0.011994385081 0.011658285614 0.011412389299 0.011280784266 0.011268376854 0.0062531024229 0.0061856066759 0.0060211265134 0.0057909077845 
0.0055252979358 0.0052503523189 0.0049865773718 0.0047491746469 0.0045489536693 0.004393393177 0.004287595627 0.0042350436013 0.0042381459519 
0.0042985828396 0.0044174716923 0.0045954040858 0.0048324199299 0.0051279624264 0.0054808150162 0.0058890029157 0.0063496572189 0.0068588614009 
0.0074115050744 0.0080011625256 0.0086200100819 0.0092588061291 0.0099059900998 0.010549593901 0.01117704866 0.011775268291 0.012331066259 
0.01283164121 0.013265113366 0.013621085251 0.0138911957 0.014069633842 0.014153579942 0.014143543274 0.014043573819 0.013861334355 
0.013608031085 0.013298212381 0.012949453069 0.012581940667 0.012217961082 0.011881229333 0.011595870086 0.011384844844 0.011267319613 
0.011255959761 0.0064459369117 0.0063456311906 0.0061783683437 0.0059669316895 0.0057324385596 0.005493306439 0.0052646876092 0.005058543938 
0.0048840633706 0.0047481657713 0.0046559719349 0.0046112018969 0.0046164971419 0.00467365934 0.0047838104056 0.0049474990522 0.0051647726884 
0.0054352024278 0.0057578348946 0.0061310680259 0.0065524820013 0.0070186662698 0.0075250702783 0.0080658920638 0.0086340183174 0.0092210380479 
0.0098158561398 0.010407500565 0.010984428511 0.011534613417 0.012045942379 0.012506673059 0.012905935525 0.013234255384 0.013484068822 
0.013650197069 0.01373024755 0.013724911991 0.013638138163 0.013477161082 0.0132523901 0.012977158533 0.012667349649 0.012340913635 
0.012017280947 0.011716656888 0.011459155171 0.011263806078 0.011147663374 0.011126162949 0.0067277665695 0.0065743687844 0.006383676755 
0.0061694418031 0.0059450972087 0.0057230662383 0.0055142433041 0.0053277654396 0.0051710009287 0.005049674578 0.0049680767864 0.004929321708 
0.0049356121516 0.0049884687814 0.0050889062867 0.0052375585545 0.005434743796 0.00568044515 0.0059741985297 0.0063149172176 0.0067007021416 
0.00712867355 0.0075948370899 0.0080939891356 0.0086196713801 0.0091641901161 0.0097168245469 0.010267384973 0.010805075093 0.011318593226 
0.011796512426 0.012227722417 0.012601916984 0.012910102684 0.013145099019 0.013301996735 0.013378540339 0.013375403794 0.013296334631 
0.013148150896 0.012940586202 0.012685989353 0.01239889444 0.012095483059 0.011792961388 0.011508874538 0.011260391096 0.011063648634 
0.010933371245 0.010883206135 0.0070618970816 0.0068436927315 0.0066142941901 0.0063805279556 0.0061502759697 0.0059314940751 0.0057314844259 
0.0055564667777 0.0054114291645 0.0053001868965 0.005225572644 0.0051896848915 0.0051941246986 0.0052401744509 0.005328909878 0.0054612509044 
0.0056379436358 0.0058594623648 0.0061258457095 0.0064365073742 0.0067900592819 0.0071841616394 0.0076153989137 0.0080791842086 0.0085697039282 
0.0090799166866 0.009599445715 0.010118658581 0.010627257757 0.011114368996 0.01156891327 0.011980045663 0.012337642827 0.012632813793 
0.012858403127 0.013009451437 0.013083577125 0.013081245853 0.013005900419 0.012863933355 0.012664496689 0.012419156593 0.012141413385 
0.011846117683 0.011548820809 0.011265103328 0.011009934284 0.010797130365 0.010639001726 0.010546204928 0.0074144356823 0.0071247214529 
0.0068465929766 0.0065824789894 0.0063361962092 0.0061118534248 0.0059131592069 0.0057431128424 0.0056039911187 0.0054974988394 0.0054249787969 
0.0053876086381 0.0053865363264 0.005422941238 0.0054980378225 0.005613036359 0.0057690562019 0.0059669874812 0.0062073187794 0.0064899601582 
0.0068140785006 0.0071779451659 0.0075787942367 0.0080127005634 0.0084744947361 0.0089577303059 0.0094523610968 0.0099490708026 0.010437846806 
0.010907989717 0.011348483541 0.011748438481 0.012097587591 0.012386811512 0.012608658828 0.012757824667 0.012831548291 0.012829892558 
0.012755874402 0.012615425903 0.012417179334 0.012172085481 0.011892890535 0.011593510766 0.011288354392 0.010991645327 0.010716802457 
0.010475916405 0.010279327543 0.010135188405 0.0077552651437 0.0073915019841 0.0070600526312 0.0067602518744 0.006492284852 0.0062564731002 
0.0060529324777 0.0058815526749 0.0057421424097 0.0056346034038 0.0055590676976 0.0055159739155 0.0055060775367 0.0055304118153 0.0055902241047 
0.0056868942545 0.0058218228501 0.0059962828954 0.0062112468468 0.0064672056654 0.0067639860277 0.0071005655116 0.0074748925046 0.0078837276395 
0.008322526175 0.008785376288 0.0092625762348 0.0097448878567 0.010222415939 0.010684434546 0.011119756477 0.011517183162 0.01186601698 
0.012156609663 0.012380912421 0.012532987403 0.012609437364 0.012609711997 0.012536255657 0.012394472504 0.012192500686 0.011940805755 
0.011651622587 0.011338291959 0.011014549789 0.010693830571 0.010388638348 0.010110013298 0.0098670707339 0.0096664983364 0.0080592595448 
0.0076225868711 0.0072372058297 0.0068995429505 0.0066062486696 0.0063541076179 0.0061400890964 0.0059615162636 0.005816225155 0.0057026552543 
0.0056198786775 0.0055675849692 0.0055460325749 0.0055559811753 0.0055986142934 0.0056754436576 0.0057881786156 0.0059385564267 0.0061281445084 
0.0063581269044 0.0066290808067 0.0069407489239 0.0072918212138 0.0076797446717 0.0081005783458 0.0085489063922 0.0090154442394 0.0094908137671 
0.0099651192939 0.010427453082 0.010866262901 0.011269811152 0.011626708241 0.011926493025 0.012160223928 0.012321037194 0.012404624957 
0.012409586534 0.012337612368 0.012193471929 0.011984794159 0.011721650108 0.011415969499 0.011080842814 0.010729773987 0.010375951781 
0.010031596422 0.0097074086856 0.0094120989953 0.0091519060495 0.0083060510147 0.0077996270363 0.0073613278855 0.0069847049587 0.0066632680245 
0.0063908626238 0.0061619407733 0.0059717570498 0.0058164602697 0.0056931128351 0.0055996832939 0.0055350261643 0.0054988423694 0.0054916158391 
0.0055145227026 0.0055693035928 0.005658091634 0.0057832007853 0.0059468874731 0.0061510963864 0.0063971976473 0.0066857244764 0.0070161255531 
0.0073865480639 0.0077936654794 0.0082325617519 0.0086945173738 0.0091698164013 0.0096484867325 0.010119320624 0.010570239033 0.010988761084 
0.011362561949 0.011680091528 0.011931216093 0.012107836615 0.012204432224 0.012218476513 0.012150679696 0.012005021649 0.011788559443 
0.01151101633 0.011184184378 0.01082119602 0.010435735769 0.010041267337 0.0096503394815 0.0092740041609 0.0089213343313 0.0085989726651 
0.0084780757532 0.0079053117781 0.0074153742141 0.0069993000636 0.0066480257763 0.0063529855149 0.00610647263 0.0059018329453 0.0057335457959 
0.0055972634511 0.0054898434471 0.0054093604297 0.0053550725954 0.0053273343626 0.0053274593863 0.0053575390218 0.0054202216071 0.0055184611563 
0.0056552453126 0.0058333102259 0.006054849032 0.0063212227551 0.0066326854502 0.0069881370059 0.0073849171155 0.0078186533222 0.0082814108437 
0.0087629554641 0.0092531993862 0.0097405518059 0.010212276838 0.01065497133 0.011055147317 0.011399892348 0.011677569543 0.011878509049 
0.011995635058 0.012024969794 0.011965959664 0.011821580268 0.011598196304 0.011305177745 0.010954302197 0.010559000199 0.01013351983 
0.0096920936426 0.0092481805923 0.0088138270511 0.0083991471825 0.0080118726584 0.0085587584602 0.0079228209739 0.0073829103192 0.0069279586194 
0.0065466359565 0.0062281192692 0.0059625681433 0.0057413946101 0.0055574170103 0.0054049651874 0.0052799497153 0.0051798689958 0.0051037353145 
0.0050519292852 0.0050260058148 0.0050284684019 0.0050625179654 0.0051317783544 0.005240002167 0.0053907623348 0.0055871357007 0.005831386053 
0.0061246566278 0.0064666855158 0.0068555597661 0.0072875238894 0.0077557147926 0.0082492267073 0.0087578582971 0.0092695943886 0.0097709493152 
0.010247446667 0.010684222704 0.011066729016 0.011381497376 0.011616917178 0.011763965576 0.011816824775 0.01177332233 0.011635140333 
0.011407758527 0.011100123393 0.010724067097 0.010293531636 0.0098236781464 0.0093299725548 0.0088273318727 0.0083293891449 0.0078478930976 
0.0073922105942 0.0085321737157 0.0078365352907 0.0072492000938 0.0067570908495 0.0063465660705 0.0060044679898 0.0057187887381 0.0054790673809 
0.0052766218845 0.0051046844189 0.0049584530474 0.0048350459542 0.0047333626375 0.004653883894 0.0045984438999 0.0045699867494 0.004572302248 
0.0046097349858 0.0046868690383 0.0048081954034 0.0049777682839 0.0051988558833 0.0054735952034 0.0058026660942 0.0061850037083 0.0066175705356 
0.0070949433583 0.0076054317699 0.008138776476 0.0086825480555 0.0092224616903 0.0097428490042 0.010227275534 0.010659283538 0.011023225914 
0.0113051417 0.01149360978 0.011580508024 0.011561602766 0.011436900738 0.011210713323 0.010891410936 0.010490880418 0.010023735342 
0.0095063604967 0.0089558900402 0.0083892178156 0.0078221160708 0.0072684990828 0.0067398212285 0.0083836269939 0.0076325139446 0.0070011025856 
0.0064741452227 0.0060355658742 0.0056698582743 0.0053629519625 0.005102704897 0.0048791604347 0.0046846609127 0.0045138475297 0.0043635527825 
0.0042326119044 0.0041216366273 0.0040327785883 0.0039694792729 0.0039361909017 0.0039380630224 0.0039806026515 0.0040693170301 0.0042093424894 
0.004405062338 0.0046597233151 0.0049750673681 0.0053509989503 0.0057853094776 0.0062745530957 0.0068061274982 0.007369857976 0.0079529722244 
0.008540387042 0.0091151625579 0.0096591232555 0.010153634556 0.010580506546 0.010922977429 0.011166711205 0.011300729639 0.011318191081 
0.01121693117 0.010999695147 0.010674019049 0.010251755168 0.0097482805317 0.0091814675717 0.0085705244749 0.0079348210273 0.0072928003208 
0.0066610404921 0.0060534841402 0.0080999509812 0.0072981657215 0.0066263226367 0.006066884204 0.0056013685724 0.0052120548878 0.0048829949007 
0.0046005480129 0.004353630055 0.0041337941118 0.0039351847781 0.0037543872072 0.0035902121434 0.0034434604604 0.0033166801539 0.0032138998642 
0.0031403240802 0.0031019940457 0.0031054273392 0.0031572418031 0.0032637613175 0.00343060371 0.0036622607175 0.0039616867512 0.0043299153162 
0.0047657234182 0.0052681288662 0.0058237300802 0.0064226315588 0.0070518430631 0.0076955396766 0.0083354811044 0.0089516180217 0.0095228893324 
0.010028190836 0.010447472603 0.010762899407 0.010959987991 0.011028620348 0.010963827619 0.01076624845 0.010442190847 0.010003266787 
0.0094656193639 0.0088488142144 0.0081745095442 0.0074650413672 0.0067420561358 0.0060252925815 0.0053315682565 0.0076692265616 0.0068217697232 
0.0061131521711 0.0055236066594 0.0050323934932 0.0046197364605 0.0042679364654 0.0039619389754 0.0036895876804 0.0034416900103 0.0032119395343 
0.0029967323185 0.0027949311557 0.0026076164153 0.0024378235088 0.0022902483874 0.0021709161315 0.0020868252601 0.0020455782193 0.002054994656 
0.002122698917 0.0022556814199 0.0024598440054 0.0027395436646 0.0030971506214 0.0035326481297 0.0040477183994 0.0046288108999 0.0052664880323 
0.0059477110455 0.0066560387116 0.0073719706733 0.0080735082527 0.0087369504869 0.0093379154578 0.009852551512 0.010258875498 0.010538147483 
0.010676167653 0.010664366646 0.010500561068 0.010189265781 0.0097414950391 0.0091740423751 0.00850829543 0.0077687037566 0.0069810603569 
0.0061707702258 0.0053612583812 0.0045726238319 0.0070805076301 0.0061925031002 0.0054508964782 0.0048338341732 0.0043184479915 0.0038829938959 
0.0035080709771 0.0031772481619 0.0028773455501 0.0025984901603 0.0023340020865 0.002080173041 0.0018360033542 0.0016029290307 0.0013845312863 
0.001186215693 0.0010148664634 0.00087848906479 0.00078584169504 0.00074604276735 0.00076814349719 0.00086066647552 0.001031119053 0.0012854902497 
0.0016277355238 0.0020592441411 0.0025843215732 0.003190624778 0.0038691729839 0.00460711612 0.0053876239519 0.006190073674 0.0069905246306 
0.0077624838128 0.0084779591612 0.00910877612 0.0096281019987 0.010012087064 0.010241496191 0.010303177165 0.010191199147 0.0099075049289 
0.0094619579744 0.0088717294215 0.0081600532661 0.0073544650524 0.0064847109449 0.0055805520668 0.0046696836143 0.0037759435348 0.0063239733902 
0.0054008523469 0.0046303521605 0.0039886452945 0.0034508106831 0.0029931889731 0.0025947302285 0.0022376997865 0.0019079851814 0.0015951259461 
0.0012921509803 0.00099531523284 0.00070380747237 0.00041945136879 0.0001463904606 -0.00010924699727 -0.00033969295805 -0.00053588838182 -0.00068784670672 
-0.00078504978832 -0.00081688584324 -0.00077312762434 -0.00064444473013 -0.00042294492606 -0.00010274280545 0.00031942262083 0.00084851204109 0.0014779622426 
0.0021976100326 0.0029953285852 0.0038542943509 0.0047530288133 0.0056657676537 0.0065631646926 0.0074133470909 0.0081833171159 0.0088406600812 
0.0093554732296 0.0097023816267 0.0098624622193 0.0098248662246 0.0095879241572 0.0091595465859 0.0085568012427 0.0078046483326 0.0069339347374 
0.0059788589211 0.0049741938406 0.0039525744585 0.0029421159546 0.0053913185139 0.0044389217467 0.0036439076539 0.0029805696294 0.0024220270468 
0.0019428031229 0.0015203104923 0.0011356298633 0.00077382172249 0.00042391450554 7.8693051052e-05 -0.00026559899592 -0.00060957531285 -0.00095102768796 
-0.0012852570348 -0.0016054106402 -0.0019028169291 -0.00216732199 -0.002387646192 -0.0025517789662 -0.0026474196392 -0.0026624644922 -0.0025855379725 
-0.0024065617613 -0.0021173379673 -0.0017120654088 -0.0011874895342 -0.00053938741045 0.00021913881414 0.0010774728909 0.0020193310835 0.0030227772617 
0.004060474365 0.0051002856591 0.0061062871232 0.0070402178913 0.0078633530508 0.0085387284556 0.0090335831849 0.0093218193426 0.0093862231426 
0.0092201612312 0.0088284779409 0.0082273840017 0.0074432456943 0.0065103402779 0.005467807251 0.0043561545602 0.0032137372069 0.0020735959127 
0.0042760103874 0.0033004747449 0.0024854468236 0.001803494797 0.0012259443225 0.00072566281566 0.00027867506759 -0.00013500232234 -0.00053105862981 
-0.00092093997472 -0.0013120954409 -0.0017082970942 -0.002109975306 -0.0025145575005 -0.0029168075732 -0.0033091572326 -0.0036820262214 -0.0040241441425 
-0.0043228951848 -0.0045647027725 -0.0047354632617 -0.0048210344377 -0.0048077838498 -0.0046831978567 -0.0044365417345 -0.004059546231 -0.0035470951778 
-0.0028889480671 -0.0020969434732 -0.001179972344 -0.00015326075733 0.00096130994797 0.0021352335803 0.0033338055873 0.0045170266217 0.0056410438606 
0.0066601480161 0.007529281936 0.0082069372281 0.0086582252044 0.0088578211107 0.0087924162496 0.0084622952714 0.0078817074253 0.0070778312728 
0.0060883316477 0.0049577389273 0.0037330864808 0.002459361402 0.0011753170684 0.0029733437834 0.0019809164014 0.001150386257 0.00045283398747 
-0.00014198671966 -0.00066267576291 -0.0011344504077 -0.0015782640856 -0.0020105106454 -0.0024430987652 -0.0028837171817 -0.0033361711809 -0.0038007364888 
-0.0042745126713 -0.0047517641945 -0.0052242398487 -0.0056814742551 -0.0061110894073 -0.0064991182035 -0.0068303675165 -0.0070888341916 -0.0072581867567 
-0.0073223253057 -0.0072660292793 -0.0070757012995 -0.0067402300415 -0.0062520781815 -0.0055946164696 -0.0047776962373 -0.0038073175465 -0.0026968761591 
-0.0014675087515 -0.00014829774 0.0012239093351 0.002605212323 0.0039460100567 0.0051930540427 0.0062922007439 0.0071917656708 0.0078462664047 
0.0082202161985 0.008291519146 0.0080539553997 0.0075182664324 0.0067114818584 0.0056743711653 0.0044572179757 0.0031144250049 0.0016986702103 
0.00025537354024 0.001480472048 0.00047739391871 -0.00036413131425 -0.0010742244785 -0.0016844638911 -0.0022247277412 -0.0027213420583 -0.0031961522551 
-0.0036662224513 -0.0041439180945 -0.0046371822353 -0.0051498877335 -0.0056822082326 -0.0062309799565 -0.0067900364488 -0.0073505096497 -0.0079011065819 
-0.0084283822009 -0.0089170310246 -0.0093502176902 -0.0097099652441 -0.0099776201959 -0.010134412344 -0.010162123921 -0.010043878404 -0.0097650554244 
-0.0093143183788 -0.0086735866826 -0.0078442002245 -0.0068293691173 -0.0056399914435 -0.0042956333868 -0.0028251539963 -0.0012668794577 0.00033181596717 
0.0019156671798 0.0034235301363 0.0047913019166 0.0059557000543 0.0068587109004 0.0074523480624 0.0077031922978 0.0075960564231 0.0071360861611 
0.006348719317 0.0052772021602 0.0039777721621 0.0025130661252 0.0009446637833 -0.0006742014994 -0.00020347994552 -0.0012110501832 -0.0020590948697 
-0.0027786307096 -0.0034023142628 -0.0039611038469 -0.0044822974119 -0.0049885540209 -0.0054975770681 -0.0060221947171 -0.006570642499 -0.0071469277446 
-0.0077512103424 -0.0083801630492 -0.0090272913465 -0.0096832095735 -0.010335885873 -0.010970877785 -0.011571582607 -0.012119526221 -0.012594714167 
-0.01297606907 -0.013241976994 -0.013370961211 -0.013342495578 -0.013137961987 -0.012741757228 -0.012135709217 -0.011309396595 -0.010262888603 
-0.0090034813778 -0.0075480948136 -0.0059243230066 -0.0041710344657 -0.002338349972 -0.00048680365108 0.0013144960199 0.002990835442 0.0044660206266 
0.0056675202992 0.0065322761673 0.0070125887353 0.0070812706726 0.0067351405041 0.0059959873164 0.0049084272869 0.0035345847118 0.0019461580336 
0.00021498306902 -0.0015965312842 -0.0020773010837 -0.0030834262896 -0.0039336563865 -0.0046595667554 -0.0052946032192 -0.0058705817452 -0.0064156262051 
-0.0069531362001 -0.0075014425984 -0.0080738746077 -0.0086790392993 -0.0093211875395 -0.010000592335 -0.01071389715 -0.011454413611 -0.01221236701 
-0.01297510335 -0.01372728071 -0.014451071015 -0.015126399226 -0.015731247888 -0.01624205559 -0.016634236681 -0.0168828454 -0.016963398749 
-0.016852849419 -0.016530622612 -0.015979317325 -0.015175105406 -0.014113731282 -0.012797663389 -0.011239930439 -0.0094656022746 -0.0075128765635 
-0.0054335594828 -0.0032926865023 -0.0011670203756 0.00085780068189 0.0026915940969 0.0042453981432 0.0054383698036 0.0062051945074 0.0065030579126 
0.0063169836619 0.0056622964018 0.0045832326417 0.0031473259009 0.0014360358104 -0.00046707707869 -0.0024888353602 -0.0041376947062 -0.0051368933161 
-0.0059852811529 -0.0067145960891 -0.0073587376359 -0.0079501370946 -0.008517604477 -0.0090852334073 -0.0096720115398 -0.010291856301 -0.010953874224 
-0.011662712238 -0.012418920447 -0.013219279679 -0.014057071452 -0.014922288218 -0.015801797742 -0.016679485226 -0.017536400913 -0.018350942811 
-0.01909910601 -0.019754831458 -0.020290486919 -0.020677511056 -0.020887249317 -0.020892011131 -0.020666400802 -0.020189119381 -0.01942950538 
-0.018374102575 -0.017019325002 -0.015372990511 -0.013456222582 -0.011305080388 -0.0089716507845 -0.006524284246 -0.0040466241813 -0.0016350886335 
0.00060545994329 0.0025679491433 0.0041510399491 0.0052681843036 0.0058567393537 0.0058856614737 0.0053600898144 0.0043212987208 0.0028411586086 
0.0010113300964 -0.0010713755967 -0.0033211841663 -0.0063794156585 -0.0073669462806 -0.0082099360739 -0.0089398196827 -0.009590577641 -0.010195013086 
-0.010782509836 -0.011377855481 -0.012000780271 -0.012665935174 -0.013383107643 -0.014157539818 -0.014990263253 -0.015878398066 -0.016815390202 
-0.017791182708 -0.018792334452 -0.019802110119 -0.020800570081 -0.021764691659 -0.022668556233 -0.023483638817 -0.024179237467 -0.024723079783 
-0.02508214439 -0.025223740391 -0.025116915274 -0.024734387517 -0.024045152128 -0.023020209352 -0.021649015411 -0.019932887042 -0.017887488172 
-0.015545063347 -0.012956248132 -0.010191082419 -0.0073387877635 -0.0045058440375 -0.0018119393035 0.0006164855749 0.0026550776573 0.0041923090046 