# vtk DataFile Version 4.1
vtk output
ASCII
DATASET STRUCTURED_GRID
DIMENSIONS 51 51 1
POINTS 2601 float
0 0 0 0.02 0 0 0.04 0 0 
0.06 0 0 0.08 0 0 0.1 0 0 
0.12 0 0 0.14 0 0 0.16 0 0 
0.18 0 0 0.2 0 0 0.22 0 0 
0.24 0 0 0.26 0 0 0.28 0 0 
0.3 0 0 0.32 0 0 0.34 0 0 
0.36 0 0 0.38 0 0 0.4 0 0 
0.42 0 0 0.44 0 0 0.46 0 0 
0.48 0 0 0.5 0 0 0.52 0 0 
0.54 0 0 0.56 0 0 0.58 0 0 
0.6 0 0 0.62 0 0 0.64 0 0 
0.66 0 0 0.68 0 0 0.7 0 0 
0.72 0 0 0.74 0 0 0.76 0 0 
0.78 0 0 0.8 0 0 0.82 0 0 
0.84 0 0 0.86 0 0 0.88 0 0 
0.9 0 0 0.92 0 0 0.94 0 0 
0.96 0 0 0.98 0 0 1 0 0 
0 0.02 0 0.02 0.02 0 0.04 0.02 0 
0.06 0.02 0 0.08 0.02 0 0.1 0.02 0 
0.12 0.02 0 0.14 0.02 0 0.16 0.02 0 
0.18 0.02 0 0.2 0.02 0 0.22 0.02 0 
0.24 0.02 0 0.26 0.02 0 0.28 0.02 0 
0.3 0.02 0 0.32 0.02 0 0.34 0.02 0 
0.36 0.02 0 0.38 0.02 0 0.4 0.02 0 
0.42 0.02 0 0.44 0.02 0 0.46 0.02 0 
0.48 0.02 0 0.5 0.02 0 0.52 0.02 0 
0.54 0.02 0 0.56 0.02 0 0.58 0.02 0 
0.6 0.02 0 0.62 0.02 0 0.64 0.02 0 
0.66 0.02 0 0.68 0.02 0 0.7 0.02 0 
0.72 0.02 0 0.74 0.02 0 0.76 0.02 0 
0.78 0.02 0 0.8 0.02 0 0.82 0.02 0 
0.84 0.02 0 0.86 0.02 0 0.88 0.02 0 
0.9 0.02 0 0.92 0.02 0 0.94 0.02 0 
0.96 0.02 0 0.98 0.02 0 1 0.02 0 
0 0.04 0 0.02 0.04 0 0.04 0.04 0 
0.06 0.04 0 0.08 0.04 0 0.1 0.04 0 
0.12 0.04 0 0.14 0.04 0 0.16 0.04 0 
0.18 0.04 0 0.2 0.04 0 0.22 0.04 0 
0.24 0.04 0 0.26 0.04 0 0.28 0.04 0 
0.3 0.04 0 0.32 0.04 0 0.34 0.04 0 
0.36 0.04 0 0.38 0.04 0 0.4 0.04 0 
0.42 0.04 0 0.44 0.04 0 0.46 0.04 0 
0.48 0.04 0 0.5 0.04 0 0.52 0.04 0 
0.54 0.04 0 0.56 0.04 0 0.58 0.04 0 
0.6 0.04 0 0.62 0.04 0 0.64 0.04 0 
0.66 0.04 0 0.68 0.04 0 0.7 0.04 0 
0.72 0.04 0 0.74 0.04 0 0.76 0.04 0 
0.78 0.04 0 0.8 0.04 0 0.82 0.04 0 
0.84 0.04 0 0.86 0.04 0 0.88 0.04 0 
0.9 0.04 0 0.92 0.04 0 0.94 0.04 0 
0.96 0.04 0 0.98 0.04 0 1 0.04 0 
0 0.06 0 0.02 0.06 0 0.04 0.06 0 
0.06 0.06 0 0.08 0.06 0 0.1 0.06 0 
0.12 0.06 0 0.14 0.06 0 0.16 0.06 0 
0.18 0.06 0 0.2 0.06 0 0.22 0.06 0 
0.24 0.06 0 0.26 0.06 0 0.28 0.06 0 
0.3 0.06 0 0.32 0.06 0 0.34 0.06 0 
0.36 0.06 0 0.38 0.06 0 0.4 0.06 0 
0.42 0.06 0 0.44 0.06 0 0.46 0.06 0 
0.48 0.06 0 0.5 0.06 0 0.52 0.06 0 
0.54 0.06 0 0.56 0.06 0 0.58 0.06 0 
0.6 0.06 0 0.62 0.06 0 0.64 0.06 0 
0.66 0.06 0 0.68 0.06 0 0.7 0.06 0 
0.72 0.06 0 0.74 0.06 0 0.76 0.06 0 
0.78 0.06 0 0.8 0.06 0 0.82 0.06 0 
0.84 0.06 0 0.86 0.06 0 0.88 0.06 0 
0.9 0.06 0 0.92 0.06 0 0.94 0.06 0 
0.96 0.06 0 0.98 0.06 0 1 0.06 0 
0 0.08 0 0.02 0.08 0 0.04 0.08 0 
0.06 0.08 0 0.08 0.08 0 0.1 0.08 0 
0.12 0.08 0 0.14 0.08 0 0.16 0.08 0 
0.18 0.08 0 0.2 0.08 0 0.22 0.08 0 
0.24 0.08 0 0.26 0.08 0 0.28 0.08 0 
0.3 0.08 0 0.32 0.08 0 0.34 0.08 0 
0.36 0.08 0 0.38 0.08 0 0.4 0.08 0 
0.42 0.08 0 0.44 0.08 0 0.46 0.08 0 
0.48 0.08 0 0.5 0.08 0 0.52 0.08 0 
0.54 0.08 0 0.56 0.08 0 0.58 0.08 0 
0.6 0.08 0 0.62 0.08 0 0.64 0.08 0 
0.66 0.08 0 0.68 0.08 0 0.7 0.08 0 
0.72 0.08 0 0.74 0.08 0 0.76 0.08 0 
0.78 0.08 0 0.8 0.08 0 0.82 0.08 0 
0.84 0.08 0 0.86 0.08 0 0.88 0.08 0 
0.9 0.08 0 0.92 0.08 0 0.94 0.08 0 
0.96 0.08 0 0.98 0.08 0 1 0.08 0 
0 0.1 0 0.02 0.1 0 0.04 0.1 0 
0.06 0.1 0 0.08 0.1 0 0.1 0.1 0 
0.12 0.1 0 0.14 0.1 0 0.16 0.1 0 
0.18 0.1 0 0.2 0.1 0 0.22 0.1 0 
0.24 0.1 0 0.26 0.1 0 0.28 0.1 0 
0.3 0.1 0 0.32 0.1 0 0.34 0.1 0 
0.36 0.1 0 0.38 0.1 0 0.4 0.1 0 
0.42 0.1 0 0.44 0.1 0 0.46 0.1 0 
0.48 0.1 0 0.5 0.1 0 0.52 0.1 0 
0.54 0.1 0 0.56 0.1 0 0.58 0.1 0 
0.6 0.1 0 0.62 0.1 0 0.64 0.1 0 
0.66 0.1 0 0.68 0.1 0 0.7 0.1 0 
0.72 0.1 0 0.74 0.1 0 0.76 0.1 0 
0.78 0.1 0 0.8 0.1 0 0.82 0.1 0 
0.84 0.1 0 0.86 0.1 0 0.88 0.1 0 
0.9 0.1 0 0.92 0.1 0 0.94 0.1 0 
0.96 0.1 0 0.98 0.1 0 1 0.1 0 
0 0.12 0 0.02 0.12 0 0.04 0.12 0 
0.06 0.12 0 0.08 0.12 0 0.1 0.12 0 
0.12 0.12 0 0.14 0.12 0 0.16 0.12 0 
0.18 0.12 0 0.2 0.12 0 0.22 0.12 0 
0.24 0.12 0 0.26 0.12 0 0.28 0.12 0 
0.3 0.12 0 0.32 0.12 0 0.34 0.12 0 
0.36 0.12 0 0.38 0.12 0 0.4 0.12 0 
0.42 0.12 0 0.44 0.12 0 0.46 0.12 0 
0.48 0.12 0 0.5 0.12 0 0.52 0.12 0 
0.54 0.12 0 0.56 0.12 0 0.58 0.12 0 
0.6 0.12 0 0.62 0.12 0 0.64 0.12 0 
0.66 0.12 0 0.68 0.12 0 0.7 0.12 0 
0.72 0.12 0 0.74 0.12 0 0.76 0.12 0 
0.78 0.12 0 0.8 0.12 0 0.82 0.12 0 
0.84 0.12 0 0.86 0.12 0 0.88 0.12 0 
0.9 0.12 0 0.92 0.12 0 0.94 0.12 0 
0.96 0.12 0 0.98 0.12 0 1 0.12 0 
0 0.14 0 0.02 0.14 0 0.04 0.14 0 
0.06 0.14 0 0.08 0.14 0 0.1 0.14 0 
0.12 0.14 0 0.14 0.14 0 0.16 0.14 0 
0.18 0.14 0 0.2 0.14 0 0.22 0.14 0 
0.24 0.14 0 0.26 0.14 0 0.28 0.14 0 
0.3 0.14 0 0.32 0.14 0 0.34 0.14 0 
0.36 0.14 0 0.38 0.14 0 0.4 0.14 0 
0.42 0.14 0 0.44 0.14 0 0.46 0.14 0 
0.48 0.14 0 0.5 0.14 0 0.52 0.14 0 
0.54 0.14 0 0.56 0.14 0 0.58 0.14 0 
0.6 0.14 0 0.62 0.14 0 0.64 0.14 0 
0.66 0.14 0 0.68 0.14 0 0.7 0.14 0 
0.72 0.14 0 0.74 0.14 0 0.76 0.14 0 
0.78 0.14 0 0.8 0.14 0 0.82 0.14 0 
0.84 0.14 0 0.86 0.14 0 0.88 0.14 0 
0.9 0.14 0 0.92 0.14 0 0.94 0.14 0 
0.96 0.14 0 0.98 0.14 0 1 0.14 0 
0 0.16 0 0.02 0.16 0 0.04 0.16 0 
0.06 0.16 0 0.08 0.16 0 0.1 0.16 0 
0.12 0.16 0 0.14 0.16 0 0.16 0.16 0 
0.18 0.16 0 0.2 0.16 0 0.22 0.16 0 
0.24 0.16 0 0.26 0.16 0 0.28 0.16 0 
0.3 0.16 0 0.32 0.16 0 0.34 0.16 0 
0.36 0.16 0 0.38 0.16 0 0.4 0.16 0 
0.42 0.16 0 0.44 0.16 0 0.46 0.16 0 
0.48 0.16 0 0.5 0.16 0 0.52 0.16 0 
0.54 0.16 0 0.56 0.16 0 0.58 0.16 0 
0.6 0.16 0 0.62 0.16 0 0.64 0.16 0 
0.66 0.16 0 0.68 0.16 0 0.7 0.16 0 
0.72 0.16 0 0.74 0.16 0 0.76 0.16 0 
0.78 0.16 0 0.8 0.16 0 0.82 0.16 0 
0.84 0.16 0 0.86 0.16 0 0.88 0.16 0 
0.9 0.16 0 0.92 0.16 0 0.94 0.16 0 
0.96 0.16 0 0.98 0.16 0 1 0.16 0 
0 0.18 0 0.02 0.18 0 0.04 0.18 0 
0.06 0.18 0 0.08 0.18 0 0.1 0.18 0 
0.12 0.18 0 0.14 0.18 0 0.16 0.18 0 
0.18 0.18 0 0.2 0.18 0 0.22 0.18 0 
0.24 0.18 0 0.26 0.18 0 0.28 0.18 0 
0.3 0.18 0 0.32 0.18 0 0.34 0.18 0 
0.36 0.18 0 0.38 0.18 0 0.4 0.18 0 
0.42 0.18 0 0.44 0.18 0 0.46 0.18 0 
0.48 0.18 0 0.5 0.18 0 0.52 0.18 0 
0.54 0.18 0 0.56 0.18 0 0.58 0.18 0 
0.6 0.18 0 0.62 0.18 0 0.64 0.18 0 
0.66 0.18 0 0.68 0.18 0 0.7 0.18 0 
0.72 0.18 0 0.74 0.18 0 0.76 0.18 0 
0.78 0.18 0 0.8 0.18 0 0.82 0.18 0 
0.84 0.18 0 0.86 0.18 0 0.88 0.18 0 
0.9 0.18 0 0.92 0.18 0 0.94 0.18 0 
0.96 0.18 0 0.98 0.18 0 1 0.18 0 
0 0.2 0 0.02 0.2 0 0.04 0.2 0 
0.06 0.2 0 0.08 0.2 0 0.1 0.2 0 
0.12 0.2 0 0.14 0.2 0 0.16 0.2 0 
0.18 0.2 0 0.2 0.2 0 0.22 0.2 0 
0.24 0.2 0 0.26 0.2 0 0.28 0.2 0 
0.3 0.2 0 0.32 0.2 0 0.34 0.2 0 
0.36 0.2 0 0.38 0.2 0 0.4 0.2 0 
0.42 0.2 0 0.44 0.2 0 0.46 0.2 0 
0.48 0.2 0 0.5 0.2 0 0.52 0.2 0 
0.54 0.2 0 0.56 0.2 0 0.58 0.2 0 
0.6 0.2 0 0.62 0.2 0 0.64 0.2 0 
0.66 0.2 0 0.68 0.2 0 0.7 0.2 0 
0.72 0.2 0 0.74 0.2 0 0.76 0.2 0 
0.78 0.2 0 0.8 0.2 0 0.82 0.2 0 
0.84 0.2 0 0.86 0.2 0 0.88 0.2 0 
0.9 0.2 0 0.92 0.2 0 0.94 0.2 0 
0.96 0.2 0 0.98 0.2 0 1 0.2 0 
0 0.22 0 0.02 0.22 0 0.04 0.22 0 
0.06 0.22 0 0.08 0.22 0 0.1 0.22 0 
0.12 0.22 0 0.14 0.22 0 0.16 0.22 0 
0.18 0.22 0 0.2 0.22 0 0.22 0.22 0 
0.24 0.22 0 0.26 0.22 0 0.28 0.22 0 
0.3 0.22 0 0.32 0.22 0 0.34 0.22 0 
0.36 0.22 0 0.38 0.22 0 0.4 0.22 0 
0.42 0.22 0 0.44 0.22 0 0.46 0.22 0 
0.48 0.22 0 0.5 0.22 0 0.52 0.22 0 
0.54 0.22 0 0.56 0.22 0 0.58 0.22 0 
0.6 0.22 0 0.62 0.22 0 0.64 0.22 0 
0.66 0.22 0 0.68 0.22 0 0.7 0.22 0 
0.72 0.22 0 0.74 0.22 0 0.76 0.22 0 
0.78 0.22 0 0.8 0.22 0 0.82 0.22 0 
0.84 0.22 0 0.86 0.22 0 0.88 0.22 0 
0.9 0.22 0 0.92 0.22 0 0.94 0.22 0 
0.96 0.22 0 0.98 0.22 0 1 0.22 0 
0 0.24 0 0.02 0.24 0 0.04 0.24 0 
0.06 0.24 0 0.08 0.24 0 0.1 0.24 0 
0.12 0.24 0 0.14 0.24 0 0.16 0.24 0 
0.18 0.24 0 0.2 0.24 0 0.22 0.24 0 
0.24 0.24 0 0.26 0.24 0 0.28 0.24 0 
0.3 0.24 0 0.32 0.24 0 0.34 0.24 0 
0.36 0.24 0 0.38 0.24 0 0.4 0.24 0 
0.42 0.24 0 0.44 0.24 0 0.46 0.24 0 
0.48 0.24 0 0.5 0.24 0 0.52 0.24 0 
0.54 0.24 0 0.56 0.24 0 0.58 0.24 0 
0.6 0.24 0 0.62 0.24 0 0.64 0.24 0 
0.66 0.24 0 0.68 0.24 0 0.7 0.24 0 
0.72 0.24 0 0.74 0.24 0 0.76 0.24 0 
0.78 0.24 0 0.8 0.24 0 0.82 0.24 0 
0.84 0.24 0 0.86 0.24 0 0.88 0.24 0 
0.9 0.24 0 0.92 0.24 0 0.94 0.24 0 
0.96 0.24 0 0.98 0.24 0 1 0.24 0 
0 0.26 0 0.02 0.26 0 0.04 0.26 0 
0.06 0.26 0 0.08 0.26 0 0.1 0.26 0 
0.12 0.26 0 0.14 0.26 0 0.16 0.26 0 
0.18 0.26 0 0.2 0.26 0 0.22 0.26 0 
0.24 0.26 0 0.26 0.26 0 0.28 0.26 0 
0.3 0.26 0 0.32 0.26 0 0.34 0.26 0 
0.36 0.26 0 0.38 0.26 0 0.4 0.26 0 
0.42 0.26 0 0.44 0.26 0 0.46 0.26 0 
0.48 0.26 0 0.5 0.26 0 0.52 0.26 0 
0.54 0.26 0 0.56 0.26 0 0.58 0.26 0 
0.6 0.26 0 0.62 0.26 0 0.64 0.26 0 
0.66 0.26 0 0.68 0.26 0 0.7 0.26 0 
0.72 0.26 0 0.74 0.26 0 0.76 0.26 0 
0.78 0.26 0 0.8 0.26 0 0.82 0.26 0 
0.84 0.26 0 0.86 0.26 0 0.88 0.26 0 
0.9 0.26 0 0.92 0.26 0 0.94 0.26 0 
0.96 0.26 0 0.98 0.26 0 1 0.26 0 
0 0.28 0 0.02 0.28 0 0.04 0.28 0 
0.06 0.28 0 0.08 0.28 0 0.1 0.28 0 
0.12 0.28 0 0.14 0.28 0 0.16 0.28 0 
0.18 0.28 0 0.2 0.28 0 0.22 0.28 0 
0.24 0.28 0 0.26 0.28 0 0.28 0.28 0 
0.3 0.28 0 0.32 0.28 0 0.34 0.28 0 
0.36 0.28 0 0.38 0.28 0 0.4 0.28 0 
0.42 0.28 0 0.44 0.28 0 0.46 0.28 0 
0.48 0.28 0 0.5 0.28 0 0.52 0.28 0 
0.54 0.28 0 0.56 0.28 0 0.58 0.28 0 
0.6 0.28 0 0.62 0.28 0 0.64 0.28 0 
0.66 0.28 0 0.68 0.28 0 0.7 0.28 0 
0.72 0.28 0 0.74 0.28 0 0.76 0.28 0 
0.78 0.28 0 0.8 0.28 0 0.82 0.28 0 
0.84 0.28 0 0.86 0.28 0 0.88 0.28 0 
0.9 0.28 0 0.92 0.28 0 0.94 0.28 0 
0.96 0.28 0 0.98 0.28 0 1 0.28 0 
0 0.3 0 0.02 0.3 0 0.04 0.3 0 
0.06 0.3 0 0.08 0.3 0 0.1 0.3 0 
0.12 0.3 0 0.14 0.3 0 0.16 0.3 0 
0.18 0.3 0 0.2 0.3 0 0.22 0.3 0 
0.24 0.3 0 0.26 0.3 0 0.28 0.3 0 
0.3 0.3 0 0.32 0.3 0 0.34 0.3 0 
0.36 0.3 0 0.38 0.3 0 0.4 0.3 0 
0.42 0.3 0 0.44 0.3 0 0.46 0.3 0 
0.48 0.3 0 0.5 0.3 0 0.52 0.3 0 
0.54 0.3 0 0.56 0.3 0 0.58 0.3 0 
0.6 0.3 0 0.62 0.3 0 0.64 0.3 0 
0.66 0.3 0 0.68 0.3 0 0.7 0.3 0 
0.72 0.3 0 0.74 0.3 0 0.76 0.3 0 
0.78 0.3 0 0.8 0.3 0 0.82 0.3 0 
0.84 0.3 0 0.86 0.3 0 0.88 0.3 0 
0.9 0.3 0 0.92 0.3 0 0.94 0.3 0 
0.96 0.3 0 0.98 0.3 0 1 0.3 0 
0 0.32 0 0.02 0.32 0 0.04 0.32 0 
0.06 0.32 0 0.08 0.32 0 0.1 0.32 0 
0.12 0.32 0 0.14 0.32 0 0.16 0.32 0 
0.18 0.32 0 0.2 0.32 0 0.22 0.32 0 
0.24 0.32 0 0.26 0.32 0 0.28 0.32 0 
0.3 0.32 0 0.32 0.32 0 0.34 0.32 0 
0.36 0.32 0 0.38 0.32 0 0.4 0.32 0 
0.42 0.32 0 0.44 0.32 0 0.46 0.32 0 
0.48 0.32 0 0.5 0.32 0 0.52 0.32 0 
0.54 0.32 0 0.56 0.32 0 0.58 0.32 0 
[...]
CELL_DATA 2500
FIELD FieldData 1
pressure 1 2500 double
0.0061889194602 0.0061191760581 0.0059246062135 0.0056473627965 0.0053288046669 0.0050010519308 0.0046876911385 0.0044060347025 0.004168518187 
0.0039836524881 0.0038571694056 0.0037929637858 0.0037933150148 0.0038588077115 0.0039888001468 0.0041824856006 0.0044396620468 0.0047605045593 
0.0051446261931 0.0055902800922 0.0060941786189 0.0066517116892 0.0072571093507 0.0079033600759 0.00858199707 0.0092829091261 0.0099938673497 
0.010701679313 0.011392404774 0.012051502734 0.012664265341 0.013216332334 0.013694278036 0.014086249689 0.014382604923 0.01457649173 
0.014664338611 0.014646242603 0.014526240487 0.014312438925 0.01401698766 0.013655908623 0.013248819778 0.012818598684 0.012391020786 
0.011994268076 0.011658169265 0.011412270338 0.011280662778 0.011268253417 0.0062531712398 0.0061828054849 0.0060184847895 0.005790992354 
0.0055281705478 0.0052541038594 0.0049891512552 0.0047495621898 0.0045471743994 0.0043900914503 0.0042838838706 0.0042322749708 0.004237251777 
0.0042994253958 0.0044189631256 0.0045963845263 0.0048324664243 0.005127441318 0.0054803221655 0.0058888407416 0.0063497482941 0.0068589768079 
0.0074114861755 0.0080009822785 0.0086197236811 0.0092584833676 0.0099056734439 0.010549291288 0.01117675468 0.011774986707 0.012330809898 
0.012831415146 0.013264906971 0.013620883394 0.013890993477 0.014069437048 0.014153393453 0.014143363403 0.014043393096 0.013861150972 
0.013607851458 0.013298045206 0.012949301586 0.012581800409 0.012217824542 0.011881092105 0.011595732667 0.011384709357 0.011267186898 
0.011255827829 0.0064435459799 0.0063441902483 0.0061797608252 0.0059704319329 0.0057353817731 0.0054935105108 0.005262023614 0.005054442789 
0.0048801333479 0.0047454788461 0.0046551140392 0.0046122685374 0.0046188434728 0.004676016695 0.0047850402734 0.0049473473929 0.0051638714919 
0.0054343831656 0.0057574848453 0.0061310501083 0.0065524785307 0.0070184965684 0.0075247505245 0.0080655272634 0.0086336946105 0.0092207806603 
0.0098156403396 0.010407289376 0.010984208417 0.011534398804 0.012045750074 0.012506500068 0.012905763892 0.013234072482 0.013483876698 
0.013650003668 0.013730055339 0.013724718213 0.013637942941 0.013476970568 0.013252211185 0.012976992348 0.012667190804 0.012340755699 
0.012017122542 0.011716502027 0.011459008493 0.011263668131 0.011147530782 0.01112603114 0.0067255768307 0.0065746142998 0.0063860871461 
0.0061714212975 0.0059441826245 0.005719177161 0.00550947589 0.0053243867388 0.005169986634 0.0050508068709 0.0049706573783 0.0049324479219 
0.0049381813456 0.0049895481464 0.0050883438967 0.0052361027025 0.0054334230977 0.0056798106228 0.0059741181283 0.006314950315 0.006700551679 
0.0071283272255 0.0075944343919 0.0080936529793 0.0086194387735 0.0091640270435 0.0097166748995 0.010267217617 0.010804899115 0.011318432683 
0.011796371663 0.012227580266 0.012601750529 0.012909908675 0.013144890988 0.013301787852 0.013378334313 0.013375199969 0.013296135205 
0.013147960198 0.012940405722 0.012685816079 0.012398724536 0.012095316688 0.011792803329 0.011508729479 0.011260258996 0.011063524866 
0.010933249797 0.010883083412 0.0070600554819 0.0068438405126 0.0066152353402 0.0063799042647 0.0061473006663 0.0059278227906 0.0057294729477 
0.0055570717112 0.0054139015546 0.0053032239947 0.0052282384277 0.0051914140278 0.0051945156136 0.0052391910997 0.0053271401772 0.005459636427 
0.0056371210183 0.0058593884458 0.0061260312223 0.006436519942 0.0067897947394 0.0071837591736 0.007615027849 0.0080789221661 0.0085695357887 
0.0090797861965 0.009599308765 0.010118510431 0.010627119043 0.011114248421 0.011568789818 0.011979888444 0.012337441891 0.012632586884 
0.012858175785 0.013009236376 0.013083372462 0.013081046454 0.013005705679 0.012863745862 0.012664318382 0.01241898786 0.012141254951 
0.011845971734 0.011548689009 0.011264983957 0.011009822163 0.010797020239 0.010638890264 0.010546091365 0.0074122320141 0.0071243288806 
0.0068467414075 0.0065815712202 0.0063345502156 0.0061112237333 0.0059145742604 0.0057458109724 0.0056063998345 0.0054986960624 0.0054250126439 
0.0053868478623 0.0053852173251 0.0054213305302 0.0054966268684 0.005612296541 0.0057690427278 0.0059673104175 0.0062075093655 0.006489817654 
0.0068136994762 0.0071775275701 0.0075784664983 0.0080124840149 0.0084743475357 0.0089576025357 0.0094522303768 0.0099489441354 0.010437732442 
0.010907871821 0.011348330519 0.011748234407 0.01209734904 0.012386571942 0.012608440364 0.012757626705 0.012831358719 0.012829703927 
0.012755688996 0.012615250649 0.012417019501 0.012171942294 0.01189276215 0.011593393971 0.011288245035 0.010991539024 0.010716695986 
0.010475808851 0.010279219448 0.010135079957 0.007753379391 0.0073918663741 0.007060986186 0.0067604824328 0.006492409502 0.0062575562566 
0.0060547413792 0.0058827082318 0.0057416788072 0.0056328614482 0.0055570834302 0.0055144259613 0.0055050145993 0.0055297020292 0.0055898903742 
0.0056869766365 0.0058221448338 0.0059965145935 0.0062111706567 0.0064668533256 0.0067635381301 0.0071001793647 0.0074746242633 0.0078835548964 
0.008322399417 0.0087852579091 0.009262455816 0.0097447691744 0.010222292176 0.010684282604 0.011119558734 0.011516949436 0.011865779224 
0.012156395165 0.012380724745 0.012532812077 0.012609261251 0.012609534999 0.012536087201 0.012394321534 0.012192369173 0.011940688936 
0.011651513017 0.011338183675 0.011014439935 0.010693719322 0.010388527664 0.010109905038 0.0098669656181 0.009666395217 0.0080592170526 
0.007624361497 0.0072385638004 0.0068997251381 0.0066061734146 0.0063543853549 0.0061400091882 0.0059600770843 0.005813544851 0.0056999520837 
0.0056182535538 0.0055671597088 0.0055462223657 0.0055562538176 0.0055988192846 0.0056756037877 0.0057882424225 0.0059384205865 0.0061278001139 
0.0063576884823 0.0066286853478 0.006940465129 0.0072916414136 0.0076796234012 0.0081004699165 0.008548786949 0.0090153130448 0.0094906746204 
0.0099649643046 0.010427268954 0.010866050507 0.011269591542 0.01162650609 0.011926316332 0.012160061744 0.012320875052 0.012404459578 
0.012409426253 0.012337466987 0.012193344061 0.011984678254 0.011721537474 0.011415854059 0.011080723814 0.010729654773 0.010375836695 
0.010031488164 0.0097073073093 0.0094120028114 0.0091518128971 0.0083079984284 0.0078014353923 0.0073612784398 0.0069833586141 0.0066620449358 
0.0063900315735 0.0061606261444 0.0059694750509 0.0058139731409 0.0056916504715 0.0055996898543 0.005535891656 0.0054996627565 0.0054919474382 
0.0055144481024 0.0055690528876 0.0056577754613 0.0057828333682 0.0059464992716 0.0061507533883 0.0063969478959 0.0066855657085 0.007016018565 
0.0073864464253 0.0077935399617 0.0082324104358 0.008694355078 0.0091696527261 0.0096483173286 0.010119138937 0.010570050252 0.010988579844 
0.011362397806 0.011679940555 0.011931067504 0.012107685119 0.012204282199 0.012218335514 0.012150550242 0.012004899413 0.011788437567 
0.011510890879 0.011184056894 0.010821071824 0.010435620156 0.010041162636 0.0096502447085 0.0092739167688 0.0089212517045 0.0085988932459 
0.0084800939262 0.00790516044 0.007413202992 0.0069970583686 0.0066469849103 0.0063526355422 0.0061056908224 0.0059004724019 0.0057325246412 
0.005597368925 0.0054908634885 0.0054104093038 0.0053554794189 0.0053270754361 0.0053269036478 0.0053570069239 0.0054198119796 0.0055181462442 
0.0056549970652 0.0058331277385 0.0060547271535 0.0063211332525 0.0066325877427 0.0069880018023 0.0073847437263 0.0078184658793 0.0082812349935 
0.0087627976883 0.0092530492881 0.0097403994733 0.010212123452 0.010654824075 0.011055008888 0.011399758322 0.011677434594 0.011878372732 
0.011995500619 0.012024838993 0.011965830512 0.011821449643 0.011598063763 0.011305046874 0.010954178902 0.010558889141 0.01013342206 
0.0096920070056 0.0092481018506 0.0088137539261 0.0083990784108 0.008011807696 0.0085586185362 0.0079203223152 0.0073801076228 0.0069269108806 
0.006547368245 0.0062291270593 0.0059627292615 0.0057409723154 0.0055573388568 0.0054055993065 0.0052807996195 0.0051802398767 0.0051034144316 
0.0050512245641 0.0050253349189 0.0050280294314 0.005062277741 0.0051316334125 0.00523989252 0.0053906738934 0.005587057756 0.0058312918267 
0.0061245188357 0.0064665016118 0.0068553577037 0.0072873402451 0.0077555665124 0.0082491037194 0.0087577406522 0.0092694716426 0.0097708242167 
0.010247325623 0.010684106807 0.011066613878 0.011381378512 0.011616793377 0.011763837726 0.011816693682 0.011773188999 0.011635007588 
0.011407631221 0.011100006688 0.010723964104 0.010293441987 0.0098235988819 0.0093299005342 0.0088272653773 0.008329327881 0.0078478371512 
0.0073921596711 0.0085294198402 0.0078332868695 0.0072478957729 0.0067583173454 0.0063487844322 0.0060058470347 0.005718859149 0.0054786409096 
0.005276548626 0.0051050126296 0.0049586674915 0.0048347760785 0.0047327138393 0.0046532187961 0.0045980167462 0.0045698051867 0.0045722380573 
0.0046096828658 0.0046868013225 0.0048081203602 0.0049776804032 0.005198732515 0.0054734262904 0.0058024736427 0.0061848272954 0.0066174349227 
0.0070948426916 0.0076053428563 0.0081386825808 0.008682448518 0.0092223639781 0.0097427567137 0.01022718439 0.010659186087 0.011023117768 
0.01130502346 0.011493485052 0.011580381281 0.011561478801 0.01143678427 0.011210607888 0.010891317812 0.010490798356 0.010023661579 
0.0095062926911 0.0089558275352 0.0083891612586 0.0078220661653 0.0072684559992 0.006739784432 0.0083798053912 0.0076304974891 0.007001979004 
0.0064765974864 0.0060374287699 0.005670087501 0.0053621030773 0.0051018834529 0.004878878104 0.0046846608475 0.004513684211 0.0043631009783 
0.0042320767476 0.0041212606824 0.0040326256603 0.0039694509768 0.0039361692034 0.0039380055496 0.0039805277233 0.0040692407539 0.0042092510541 
0.0044049362456 0.0046595698169 0.004974919486 0.0053508851281 0.0057852302541 0.006274488272 0.0068060597181 0.0073697857987 0.0079529032755 
0.0085403247553 0.0091151010919 0.009659052655 0.010153548708 0.010580406574 0.010922869348 0.011166601784 0.011300624056 0.011318092572 
0.011216841108 0.01099961328 0.010673944049 0.010251685475 0.0097482153493 0.009181407498 0.0085704709707 0.0079347753664 0.0072927628779 
0.0066610110174 0.0060534620118 0.0080971054406 0.0072981197562 0.0066282621022 0.006068593572 0.0056014407238 0.0052107848447 0.0048815706941 
0.004599771048 0.0043534498177 0.004133741003 0.0039349541756 0.0037540165226 0.0035898899457 0.0034432939104 0.00331663139 0.0032138731984 
0.0031402685465 0.003101922887 0.0031053672038 0.0031571892968 0.0032636920605 0.0034305085267 0.0036621593096 0.0039616058513 0.0043298618977 
0.0047656836798 0.0052680885451 0.0058236886891 0.0064225968926 0.0070518174459 0.0076955148633 0.0083354448065 0.0089515632621 0.0095228181163 
0.010028110856 0.010447391521 0.010762821509 0.010959914247 0.011028549957 0.010963759373 0.010766181684 0.010442125788 0.010003204584 
0.0094655618978 0.0088487636101 0.0081744673946 0.0074650083917 0.0067420323024 0.0060252775373 0.0053315615136 0.0076683870686 0.0068230037676 
0.0061145432802 0.0055235007765 0.0050308349336 0.0046179229414 0.0042668540449 0.0039616677196 0.0036896313286 0.0034416197705 0.0032116770025 
0.0029964206332 0.0027947043472 0.0026074953175 0.0024377533277 0.0022901814594 0.0021708506717 0.0020867811021 0.0020455567249 0.0020549734044 
0.0021226596604 0.0022556307953 0.0024598028436 0.0027395225437 0.0030971424075 0.0035326422851 0.0040477149545 0.0046288171007 0.0052665052755 
0.0059477295164 0.0066560446211 0.0073719566369 0.0080734769071 0.0087369101378 0.009337873316 0.0098525100861 0.010258833388 0.010538102173 
0.010676117671 0.010664312386 0.010500504589 0.010189209977 0.0097414428983 0.0091739965129 0.0085082577283 0.0077686752594 0.0069810414923 
0.0061707610515 0.0053612587153 0.0045726333605 0.0070813724066 0.0061938356852 0.0054509454953 0.0048323078219 0.004316482472 0.0038817551833 
0.0035077815693 0.0031773847184 0.0028773708041 0.0025982548398 0.002333643048 0.0020798534384 0.0018357838639 0.0016027890468 0.0013844350721 
0.001186149141 0.0010148314594 0.00087848091471 0.00078584206889 0.00074603535033 0.00076812992168 0.00086066179021 0.0010311335896 0.0012855206287 
0.0016277732777 0.0020592876732 0.0025843753983 0.0031906894148 0.0038692388623 0.0046071699044 0.005387658622 0.006190091992 0.0069905343026 
0.0077624904084 0.0084779628717 0.0091087734367 0.0096280893355 0.010012063209 0.010241462664 0.010303137338 0.010191156997 0.0099074640789 
0.009461921322 0.0088716991806 0.0081600309858 0.0073544517694 0.006484707329 0.0055805584888 0.0046697001303 0.0037759700471 0.0063255545969 
0.0054015022306 0.0046293089156 0.0039868026647 0.003449502616 0.0029928878522 0.0025949593026 0.0022378126435 0.0019077525116 0.0015946985643 
0.001291740542 0.00099501201197 0.00070360317483 0.00041931775047 0.00014631139622 -0.00010928349914 -0.00033970453411 -0.00053589387253 -0.00068785433943 
-0.00078505216084 -0.00081686819177 -0.00077308155676 -0.00064437392302 -0.0004228586246 -0.00010264635649 0.00031952913405 0.00084862577633 0.0014780761766 
0.0021977135347 0.0029954164278 0.0038543692442 0.0047530967867 0.0056658316657 0.0065632223049 0.007413392992 0.0081833471399 0.0088406734249 
0.0093554722012 0.0097023701506 0.0098624444526 0.0098248457679 0.0095879039606 0.0091595291482 0.0085567887789 0.0078046427081 0.0069339374275 
0.0059788710109 0.0049742160829 0.0039526072732 0.0029421595424 0.005392682781 0.0044387340314 0.0036424861833 0.002979266133 0.0024216574229 
0.0019430938329 0.0015205498626 0.0011354596643 0.00077337151955 0.00042345452884 7.8354447272e-05 -0.00026582630945 -0.00060972883648 -0.00095112143049 
-0.0012853020122 -0.0016054324503 -0.0019028405449 -0.0021673503607 -0.0023876603847 -0.0025517569373 -0.0026473526933 -0.0026623588372 -0.0025854058575 
-0.0024064132658 -0.0021171793874 -0.0017119023366 -0.0011873290365 -0.00053923536654 0.00021928072053 0.0010776078175 0.0020194628305 0.0030229055399 
0.0040605939776 0.0051003897555 0.0061063711372 0.0070402812029 0.0078633980982 0.0085387588924 0.0090336025485 0.0093218306267 0.0093862289885 
0.0092201643129 0.0088284810766 0.0082273899492 0.0074432568991 0.0065103587667 0.0054678346612 0.0043561921736 0.0032137859124 0.0020736562027 
0.0042766305784 0.0032996930328 0.0024842463949 0.001802983003 0.0012262084583 0.00072604598196 0.00027866226622 -0.00013538406709 -0.00053150786537 
-0.00092126306316 -0.0013122927443 -0.0017084298741 -0.0021100661343 -0.0025146064287 -0.0029168337965 -0.0033091906481 -0.0036820721781 -0.0040241755451 
-0.0043228788395 -0.0045646252469 -0.004735332354 -0.0048208655586 -0.0048075905902 -0.0046829914064 -0.0044363321519 -0.0040593409823 -0.003546896713 
-0.002888753333 -0.0020967480593 -0.0011797744958 -0.00015306413663 0.00096149748149 0.0021354039199 0.0033339538378 0.0045171519334 0.0056411480582 
0.0066602337293 0.0075293515098 0.0082069926435 0.008658268484 0.0088578547625 0.0087924433893 0.0084623193481 0.0078817318012 0.0070778590219 
0.0060883655117 0.0049577812703 0.0037331391498 0.0024594256735 0.0011753936787 0.0029731263426 0.0019799144498 0.0011496870839 0.00045293644184 
-0.00014152616844 -0.00066248447828 -0.0011346820202 -0.0015786553287 -0.0020107997038 -0.0024432415043 -0.0028837924161 -0.0033362282513 -0.0038007721504 
-0.0042745289246 -0.0047517866353 -0.0052242805273 -0.0056815071781 -0.0061110734156 -0.0064990324986 -0.0068302186945 -0.0070886390651 -0.0072579595501 
-0.0073220786477 -0.0072657765707 -0.0070754523238 -0.0067399857278 -0.0062518319787 -0.0055943619379 -0.0047774327535 -0.0038070516789 -0.0026966180785 
-0.0014672674324 -0.00014807821275 0.0012241057722 0.0026053863129 0.0039461626164 0.0051931859538 0.0062923127125 0.007191858825 0.0078463426764 
0.0082202784666 0.0082915710304 0.0080540008683 0.0075183094711 0.006711526316 0.0056744206067 0.0044572754359 0.0031144927689 0.00169874985 
0.00025546609424 0.0014796545807 0.00047651409665 -0.00036432261373 -0.0010738364902 -0.0016841192592 -0.0022247826321 -0.0027216574785 -0.0031964295172 
-0.0036663384426 -0.0041439362204 -0.0046371849591 -0.0051498901147 -0.0056821998748 -0.0062309729415 -0.0067900462679 -0.007350518942 -0.0079010741801 
-0.0084282816181 -0.008916865776 -0.0093500038921 -0.0097097146414 -0.0099773423386 -0.010134120951 -0.010161831857 -0.01004358815 -0.0097647589497 
-0.0093140069032 -0.0086732599654 -0.0078438668588 -0.006829041092 -0.0056396781701 -0.0042953396413 -0.0028248813659 -0.0012666286189 0.00033204410568 
0.0019158715582 0.0034237100205 0.0047914572839 0.00595583187 0.0068588212434 0.0074524400824 0.0077032699627 0.0075961241989 0.0071361487374 
0.0063487813088 0.005277267792 0.0039778449578 0.0025131487816 0.00094475826869 -0.00067409371213 -0.00020449031958 -0.0012115939125 -0.0020589422081 
-0.0027782590007 -0.0034022255881 -0.003961344403 -0.0044825976375 -0.0049887066218 -0.0054975857803 -0.0060221555876 -0.0065706053853 -0.0071468888283 
-0.007751168758 -0.0083801309281 -0.0090272607448 -0.0096831460959 -0.010335761773 -0.010970693997 -0.011571353991 -0.012119260528 -0.012594414169 
-0.012975744861 -0.013241643695 -0.013370625189 -0.013342149802 -0.013137596359 -0.012741370611 -0.012135312075 -0.011309001642 -0.010262505516 
-0.0090031142826 -0.0075477451195 -0.005923992403 -0.0041707257199 -0.0023380660915 -0.00048654696921 0.0013147241732 0.002991034778 0.0044661920034 
0.0056676658314 0.0065323991659 0.0070126934684 0.0070813620567 0.0067352237701 0.0059960675943 0.0049085092773 0.0035346724433 0.0019462547775 
0.00021509136788 -0.0015964094476 -0.0020781222451 -0.0030835937717 -0.0039333839574 -0.0046593932775 -0.0052947645453 -0.0058709105011 -0.0064158666583 
-0.0069532041138 -0.0075014080072 -0.008073816037 -0.0086789775814 -0.0093211206113 -0.010000526578 -0.01071383007 -0.011454319069 -0.012212218932 
-0.012974901436 -0.013727039894 -0.014450796429 -0.015126085756 -0.015730898626 -0.016241685883 -0.016633857936 -0.016882453784 -0.016962983634 
-0.016852408594 -0.016530166328 -0.015978860146 -0.015174656939 -0.0141132948 -0.012797239607 -0.011239521463 -0.009465212315 -0.0075125104112 
-0.0054332210852 -0.0032923785779 -0.0011667445478 0.00085804387498 0.002691805394 0.004245579671 0.0054385249362 0.0062053276074 0.0065031740458 
0.00631708829 0.00566239501 0.0045833304593 0.0031474276367 0.0014361454516 -0.0004669563507 -0.002488701042 -0.0041381177276 -0.0051367840425 
-0.0059850660804 -0.0067146528489 -0.0073590491666 -0.0079504616965 -0.0085177758822 -0.0090852579112 -0.009671967404 -0.010291790667 -0.010953797551 
-0.011662630706 -0.012418834785 -0.013219169762 -0.014056911703 -0.014922075995 -0.015801549221 -0.016679206761 -0.017536081972 -0.018350578017 
-0.019098708376 -0.019754417306 -0.02029005719 -0.020677055039 -0.020886762516 -0.020891503328 -0.020665887948 -0.020188612313 -0.019429006096 
-0.01837361106 -0.017018843188 -0.015372523426 -0.013455776375 -0.011304660409 -0.008971261039 -0.0065239276163 -0.004046302529 -0.0016348026393 
0.00060571093683 0.0025681670978 0.0041512279551 0.005268346434 0.0058568805311 0.0058857872722 0.0053602061294 0.0043214114271 0.0028412731587 
0.0010114511831 -0.0010712441703 -0.0033210393511 -0.0063794357762 -0.0073667102532 -0.0082098519305 -0.0089400308414 -0.0095909195113 -0.010195275663 
-0.010782620879 -0.011377858145 -0.012000730894 -0.012665860916 -0.013383022941 -0.014157451906 -0.014990157495 -0.015878246278 -0.016815182427 
-0.01779093417 -0.018792056544 -0.019801792416 -0.020800199986 -0.021764277423 -0.022668117749 -0.023483182824 -0.024178753711 -0.024722559999 
-0.025081596166 -0.025223180943 -0.0251163573 -0.024733833745 -0.024044601932 -0.023019663721 -0.0216484795 -0.019932367795 -0.01788699195 
-0.015544595175 -0.012955811911 -0.010190681099 -0.0073384232626 -0.0045055171412 -0.0018116496827 0.00061673930682 0.0026552979557 0.0041924994664 