# vtk DataFile Version 4.1
vtk output
ASCII
DATASET STRUCTURED_GRID
DIMENSIONS 51 51 1
POINTS 2601 float
0 0 0 0.02 0 0 0.04 0 0 
0.06 0 0 0.08 0 0 0.1 0 0 
0.12 0 0 0.14 0 0 0.16 0 0 
0.18 0 0 0.2 0 0 0.22 0 0 
0.24 0 0 0.26 0 0 0.28 0 0 
0.3 0 0 0.32 0 0 0.34 0 0 
0.36 0 0 0.38 0 0 0.4 0 0 
0.42 0 0 0.44 0 0 0.46 0 0 
0.48 0 0 0.5 0 0 0.52 0 0 
0.54 0 0 0.56 0 0 0.58 0 0 
0.6 0 0 0.62 0 0 0.64 0 0 
0.66 0 0 0.68 0 0 0.7 0 0 
0.72 0 0 0.74 0 0 0.76 0 0 
0.78 0 0 0.8 0 0 0.82 0 0 
0.84 0 0 0.86 0 0 0.88 0 0 
0.9 0 0 0.92 0 0 0.94 0 0 
0.96 0 0 0.98 0 0 1 0 0 
0 0.02 0 0.02 0.02 0 0.04 0.02 0 
0.06 0.02 0 0.08 0.02 0 0.1 0.02 0 
0.12 0.02 0 0.14 0.02 0 0.16 0.02 0 
0.18 0.02 0 0.2 0.02 0 0.22 0.02 0 
0.24 0.02 0 0.26 0.02 0 0.28 0.02 0 
0.3 0.02 0 0.32 0.02 0 0.34 0.02 0 
0.36 0.02 0 0.38 0.02 0 0.4 0.02 0 
0.42 0.02 0 0.44 0.02 0 0.46 0.02 0 
0.48 0.02 0 0.5 0.02 0 0.52 0.02 0 
0.54 0.02 0 0.56 0.02 0 0.58 0.02 0 
0.6 0.02 0 0.62 0.02 0 0.64 0.02 0 
0.66 0.02 0 0.68 0.02 0 0.7 0.02 0 
0.72 0.02 0 0.74 0.02 0 0.76 0.02 0 
0.78 0.02 0 0.8 0.02 0 0.82 0.02 0 
0.84 0.02 0 0.86 0.02 0 0.88 0.02 0 
0.9 0.02 0 0.92 0.02 0 0.94 0.02 0 
0.96 0.02 0 0.98 0.02 0 1 0.02 0 
0 0.04 0 0.02 0.04 0 0.04 0.04 0 
0.06 0.04 0 0.08 0.04 0 0.1 0.04 0 
0.12 0.04 0 0.14 0.04 0 0.16 0.04 0 
0.18 0.04 0 0.2 0.04 0 0.22 0.04 0 
0.24 0.04 0 0.26 0.04 0 0.28 0.04 0 
0.3 0.04 0 0.32 0.04 0 0.34 0.04 0 
0.36 0.04 0 0.38 0.04 0 0.4 0.04 0 
0.42 0.04 0 0.44 0.04 0 0.46 0.04 0 
0.48 0.04 0 0.5 0.04 0 0.52 0.04 0 
0.54 0.04 0 0.56 0.04 0 0.58 0.04 0 
0.6 0.04 0 0.62 0.04 0 0.64 0.04 0 
0.66 0.04 0 0.68 0.04 0 0.7 0.04 0 
0.72 0.04 0 0.74 0.04 0 0.76 0.04 0 
0.78 0.04 0 0.8 0.04 0 0.82 0.04 0 
0.84 0.04 0 0.86 0.04 0 0.88 0.04 0 
0.9 0.04 0 0.92 0.04 0 0.94 0.04 0 
0.96 0.04 0 0.98 0.04 0 1 0.04 0 
0 0.06 0 0.02 0.06 0 0.04 0.06 0 
0.06 0.06 0 0.08 0.06 0 0.1 0.06 0 
0.12 0.06 0 0.14 0.06 0 0.16 0.06 0 
0.18 0.06 0 0.2 0.06 0 0.22 0.06 0 
0.24 0.06 0 0.26 0.06 0 0.28 0.06 0 
0.3 0.06 0 0.32 0.06 0 0.34 0.06 0 
0.36 0.06 0 0.38 0.06 0 0.4 0.06 0 
0.42 0.06 0 0.44 0.06 0 0.46 0.06 0 
0.48 0.06 0 0.5 0.06 0 0.52 0.06 0 
0.54 0.06 0 0.56 0.06 0 0.58 0.06 0 
0.6 0.06 0 0.62 0.06 0 0.64 0.06 0 
0.66 0.06 0 0.68 0.06 0 0.7 0.06 0 
0.72 0.06 0 0.74 0.06 0 0.76 0.06 0 
0.78 0.06 0 0.8 0.06 0 0.82 0.06 0 
0.84 0.06 0 0.86 0.06 0 0.88 0.06 0 
0.9 0.06 0 0.92 0.06 0 0.94 0.06 0 
0.96 0.06 0 0.98 0.06 0 1 0.06 0 
0 0.08 0 0.02 0.08 0 0.04 0.08 0 
0.06 0.08 0 0.08 0.08 0 0.1 0.08 0 
0.12 0.08 0 0.14 0.08 0 0.16 0.08 0 
0.18 0.08 0 0.2 0.08 0 0.22 0.08 0 
0.24 0.08 0 0.26 0.08 0 0.28 0.08 0 
0.3 0.08 0 0.32 0.08 0 0.34 0.08 0 
0.36 0.08 0 0.38 0.08 0 0.4 0.08 0 
0.42 0.08 0 0.44 0.08 0 0.46 0.08 0 
0.48 0.08 0 0.5 0.08 0 0.52 0.08 0 
0.54 0.08 0 0.56 0.08 0 0.58 0.08 0 
0.6 0.08 0 0.62 0.08 0 0.64 0.08 0 
0.66 0.08 0 0.68 0.08 0 0.7 0.08 0 
0.72 0.08 0 0.74 0.08 0 0.76 0.08 0 
0.78 0.08 0 0.8 0.08 0 0.82 0.08 0 
0.84 0.08 0 0.86 0.08 0 0.88 0.08 0 
0.9 0.08 0 0.92 0.08 0 0.94 0.08 0 
0.96 0.08 0 0.98 0.08 0 1 0.08 0 
0 0.1 0 0.02 0.1 0 0.04 0.1 0 
0.06 0.1 0 0.08 0.1 0 0.1 0.1 0 
0.12 0.1 0 0.14 0.1 0 0.16 0.1 0 
0.18 0.1 0 0.2 0.1 0 0.22 0.1 0 
0.24 0.1 0 0.26 0.1 0 0.28 0.1 0 
0.3 0.1 0 0.32 0.1 0 0.34 0.1 0 
0.36 0.1 0 0.38 0.1 0 0.4 0.1 0 
0.42 0.1 0 0.44 0.1 0 0.46 0.1 0 
0.48 0.1 0 0.5 0.1 0 0.52 0.1 0 
0.54 0.1 0 0.56 0.1 0 0.58 0.1 0 
0.6 0.1 0 0.62 0.1 0 0.64 0.1 0 
0.66 0.1 0 0.68 0.1 0 0.7 0.1 0 
0.72 0.1 0 0.74 0.1 0 0.76 0.1 0 
0.78 0.1 0 0.8 0.1 0 0.82 0.1 0 
0.84 0.1 0 0.86 0.1 0 0.88 0.1 0 
0.9 0.1 0 0.92 0.1 0 0.94 0.1 0 
0.96 0.1 0 0.98 0.1 0 1 0.1 0 
0 0.12 0 0.02 0.12 0 0.04 0.12 0 
0.06 0.12 0 0.08 0.12 0 0.1 0.12 0 
0.12 0.12 0 0.14 0.12 0 0.16 0.12 0 
0.18 0.12 0 0.2 0.12 0 0.22 0.12 0 
0.24 0.12 0 0.26 0.12 0 0.28 0.12 0 
0.3 0.12 0 0.32 0.12 0 0.34 0.12 0 
0.36 0.12 0 0.38 0.12 0 0.4 0.12 0 
0.42 0.12 0 0.44 0.12 0 0.46 0.12 0 
0.48 0.12 0 0.5 0.12 0 0.52 0.12 0 
0.54 0.12 0 0.56 0.12 0 0.58 0.12 0 
0.6 0.12 0 0.62 0.12 0 0.64 0.12 0 
0.66 0.12 0 0.68 0.12 0 0.7 0.12 0 
0.72 0.12 0 0.74 0.12 0 0.76 0.12 0 
0.78 0.12 0 0.8 0.12 0 0.82 0.12 0 
0.84 0.12 0 0.86 0.12 0 0.88 0.12 0 
0.9 0.12 0 0.92 0.12 0 0.94 0.12 0 
0.96 0.12 0 0.98 0.12 0 1 0.12 0 
0 0.14 0 0.02 0.14 0 0.04 0.14 0 
0.06 0.14 0 0.08 0.14 0 0.1 0.14 0 
0.12 0.14 0 0.14 0.14 0 0.16 0.14 0 
0.18 0.14 0 0.2 0.14 0 0.22 0.14 0 
0.24 0.14 0 0.26 0.14 0 0.28 0.14 0 
0.3 0.14 0 0.32 0.14 0 0.34 0.14 0 
0.36 0.14 0 0.38 0.14 0 0.4 0.14 0 
0.42 0.14 0 0.44 0.14 0 0.46 0.14 0 
0.48 0.14 0 0.5 0.14 0 0.52 0.14 0 
0.54 0.14 0 0.56 0.14 0 0.58 0.14 0 
0.6 0.14 0 0.62 0.14 0 0.64 0.14 0 
0.66 0.14 0 0.68 0.14 0 0.7 0.14 0 
0.72 0.14 0 0.74 0.14 0 0.76 0.14 0 
0.78 0.14 0 0.8 0.14 0 0.82 0.14 0 
0.84 0.14 0 0.86 0.14 0 0.88 0.14 0 
0.9 0.14 0 0.92 0.14 0 0.94 0.14 0 
0.96 0.14 0 0.98 0.14 0 1 0.14 0 
0 0.16 0 0.02 0.16 0 0.04 0.16 0 
0.06 0.16 0 0.08 0.16 0 0.1 0.16 0 
0.12 0.16 0 0.14 0.16 0 0.16 0.16 0 
0.18 0.16 0 0.2 0.16 0 0.22 0.16 0 
0.24 0.16 0 0.26 0.16 0 0.28 0.16 0 
0.3 0.16 0 0.32 0.16 0 0.34 0.16 0 
0.36 0.16 0 0.38 0.16 0 0.4 0.16 0 
0.42 0.16 0 0.44 0.16 0 0.46 0.16 0 
0.48 0.16 0 0.5 0.16 0 0.52 0.16 0 
0.54 0.16 0 0.56 0.16 0 0.58 0.16 0 
0.6 0.16 0 0.62 0.16 0 0.64 0.16 0 
0.66 0.16 0 0.68 0.16 0 0.7 0.16 0 
0.72 0.16 0 0.74 0.16 0 0.76 0.16 0 
0.78 0.16 0 0.8 0.16 0 0.82 0.16 0 
0.84 0.16 0 0.86 0.16 0 0.88 0.16 0 
0.9 0.16 0 0.92 0.16 0 0.94 0.16 0 
0.96 0.16 0 0.98 0.16 0 1 0.16 0 
0 0.18 0 0.02 0.18 0 0.04 0.18 0 
0.06 0.18 0 0.08 0.18 0 0.1 0.18 0 
0.12 0.18 0 0.14 0.18 0 0.16 0.18 0 
0.18 0.18 0 0.2 0.18 0 0.22 0.18 0 
0.24 0.18 0 0.26 0.18 0 0.28 0.18 0 
0.3 0.18 0 0.32 0.18 0 0.34 0.18 0 
0.36 0.18 0 0.38 0.18 0 0.4 0.18 0 
0.42 0.18 0 0.44 0.18 0 0.46 0.18 0 
0.48 0.18 0 0.5 0.18 0 0.52 0.18 0 
0.54 0.18 0 0.56 0.18 0 0.58 0.18 0 
0.6 0.18 0 0.62 0.18 0 0.64 0.18 0 
0.66 0.18 0 0.68 0.18 0 0.7 0.18 0 
0.72 0.18 0 0.74 0.18 0 0.76 0.18 0 
0.78 0.18 0 0.8 0.18 0 0.82 0.18 0 
0.84 0.18 0 0.86 0.18 0 0.88 0.18 0 
0.9 0.18 0 0.92 0.18 0 0.94 0.18 0 
0.96 0.18 0 0.98 0.18 0 1 0.18 0 
0 0.2 0 0.02 0.2 0 0.04 0.2 0 
0.06 0.2 0 0.08 0.2 0 0.1 0.2 0 
0.12 0.2 0 0.14 0.2 0 0.16 0.2 0 
0.18 0.2 0 0.2 0.2 0 0.22 0.2 0 
0.24 0.2 0 0.26 0.2 0 0.28 0.2 0 
0.3 0.2 0 0.32 0.2 0 0.34 0.2 0 
0.36 0.2 0 0.38 0.2 0 0.4 0.2 0 
0.42 0.2 0 0.44 0.2 0 0.46 0.2 0 
0.48 0.2 0 0.5 0.2 0 0.52 0.2 0 
0.54 0.2 0 0.56 0.2 0 0.58 0.2 0 
0.6 0.2 0 0.62 0.2 0 0.64 0.2 0 
0.66 0.2 0 0.68 0.2 0 0.7 0.2 0 
0.72 0.2 0 0.74 0.2 0 0.76 0.2 0 
0.78 0.2 0 0.8 0.2 0 0.82 0.2 0 
0.84 0.2 0 0.86 0.2 0 0.88 0.2 0 
0.9 0.2 0 0.92 0.2 0 0.94 0.2 0 
0.96 0.2 0 0.98 0.2 0 1 0.2 0 
0 0.22 0 0.02 0.22 0 0.04 0.22 0 
0.06 0.22 0 0.08 0.22 0 0.1 0.22 0 
0.12 0.22 0 0.14 0.22 0 0.16 0.22 0 
0.18 0.22 0 0.2 0.22 0 0.22 0.22 0 
0.24 0.22 0 0.26 0.22 0 0.28 0.22 0 
0.3 0.22 0 0.32 0.22 0 0.34 0.22 0 
0.36 0.22 0 0.38 0.22 0 0.4 0.22 0 
0.42 0.22 0 0.44 0.22 0 0.46 0.22 0 
0.48 0.22 0 0.5 0.22 0 0.52 0.22 0 
0.54 0.22 0 0.56 0.22 0 0.58 0.22 0 
0.6 0.22 0 0.62 0.22 0 0.64 0.22 0 
0.66 0.22 0 0.68 0.22 0 0.7 0.22 0 
0.72 0.22 0 0.74 0.22 0 0.76 0.22 0 
0.78 0.22 0 0.8 0.22 0 0.82 0.22 0 
0.84 0.22 0 0.86 0.22 0 0.88 0.22 0 
0.9 0.22 0 0.92 0.22 0 0.94 0.22 0 
0.96 0.22 0 0.98 0.22 0 1 0.22 0 
0 0.24 0 0.02 0.24 0 0.04 0.24 0 
0.06 0.24 0 0.08 0.24 0 0.1 0.24 0 
0.12 0.24 0 0.14 0.24 0 0.16 0.24 0 
0.18 0.24 0 0.2 0.24 0 0.22 0.24 0 
0.24 0.24 0 0.26 0.24 0 0.28 0.24 0 
0.3 0.24 0 0.32 0.24 0 0.34 0.24 0 
0.36 0.24 0 0.38 0.24 0 0.4 0.24 0 
0.42 0.24 0 0.44 0.24 0 0.46 0.24 0 
0.48 0.24 0 0.5 0.24 0 0.52 0.24 0 
0.54 0.24 0 0.56 0.24 0 0.58 0.24 0 
0.6 0.24 0 0.62 0.24 0 0.64 0.24 0 
0.66 0.24 0 0.68 0.24 0 0.7 0.24 0 
0.72 0.24 0 0.74 0.24 0 0.76 0.24 0 
0.78 0.24 0 0.8 0.24 0 0.82 0.24 0 
0.84 0.24 0 0.86 0.24 0 0.88 0.24 0 
0.9 0.24 0 0.92 0.24 0 0.94 0.24 0 
0.96 0.24 0 0.98 0.24 0 1 0.24 0 
0 0.26 0 0.02 0.26 0 0.04 0.26 0 
0.06 0.26 0 0.08 0.26 0 0.1 0.26 0 
0.12 0.26 0 0.14 0.26 0 0.16 0.26 0 
0.18 0.26 0 0.2 0.26 0 0.22 0.26 0 
0.24 0.26 0 0.26 0.26 0 0.28 0.26 0 
0.3 0.26 0 0.32 0.26 0 0.34 0.26 0 
0.36 0.26 0 0.38 0.26 0 0.4 0.26 0 
0.42 0.26 0 0.44 0.26 0 0.46 0.26 0 
0.48 0.26 0 0.5 0.26 0 0.52 0.26 0 
0.54 0.26 0 0.56 0.26 0 0.58 0.26 0 
0.6 0.26 0 0.62 0.26 0 0.64 0.26 0 
0.66 0.26 0 0.68 0.26 0 0.7 0.26 0 
0.72 0.26 0 0.74 0.26 0 0.76 0.26 0 
0.78 0.26 0 0.8 0.26 0 0.82 0.26 0 
0.84 0.26 0 0.86 0.26 0 0.88 0.26 0 
0.9 0.26 0 0.92 0.26 0 0.94 0.26 0 
0.96 0.26 0 0.98 0.26 0 1 0.26 0 
0 0.28 0 0.02 0.28 0 0.04 0.28 0 
0.06 0.28 0 0.08 0.28 0 0.1 0.28 0 
0.12 0.28 0 0.14 0.28 0 0.16 0.28 0 
0.18 0.28 0 0.2 0.28 0 0.22 0.28 0 
0.24 0.28 0 0.26 0.28 0 0.28 0.28 0 
0.3 0.28 0 0.32 0.28 0 0.34 0.28 0 
0.36 0.28 0 0.38 0.28 0 0.4 0.28 0 
0.42 0.28 0 0.44 0.28 0 0.46 0.28 0 
0.48 0.28 0 0.5 0.28 0 0.52 0.28 0 
0.54 0.28 0 0.56 0.28 0 0.58 0.28 0 
0.6 0.28 0 0.62 0.28 0 0.64 0.28 0 
0.66 0.28 0 0.68 0.28 0 0.7 0.28 0 
0.72 0.28 0 0.74 0.28 0 0.76 0.28 0 
0.78 0.28 0 0.8 0.28 0 0.82 0.28 0 
0.84 0.28 0 0.86 0.28 0 0.88 0.28 0 
0.9 0.28 0 0.92 0.28 0 0.94 0.28 0 
0.96 0.28 0 0.98 0.28 0 1 0.28 0 
0 0.3 0 0.02 0.3 0 0.04 0.3 0 
0.06 0.3 0 0.08 0.3 0 0.1 0.3 0 
0.12 0.3 0 0.14 0.3 0 0.16 0.3 0 
0.18 0.3 0 0.2 0.3 0 0.22 0.3 0 
0.24 0.3 0 0.26 0.3 0 0.28 0.3 0 
0.3 0.3 0 0.32 0.3 0 0.34 0.3 0 
0.36 0.3 0 0.38 0.3 0 0.4 0.3 0 
0.42 0.3 0 0.44 0.3 0 0.46 0.3 0 
0.48 0.3 0 0.5 0.3 0 0.52 0.3 0 
0.54 0.3 0 0.56 0.3 0 0.58 0.3 0 
0.6 0.3 0 0.62 0.3 0 0.64 0.3 0 
0.66 0.3 0 0.68 0.3 0 0.7 0.3 0 
0.72 0.3 0 0.74 0.3 0 0.76 0.3 0 
0.78 0.3 0 0.8 0.3 0 0.82 0.3 0 
0.84 0.3 0 0.86 0.3 0 0.88 0.3 0 
0.9 0.3 0 0.92 0.3 0 0.94 0.3 0 
0.96 0.3 0 0.98 0.3 0 1 0.3 0 
0 0.32 0 0.02 0.32 0 0.04 0.32 0 
0.06 0.32 0 0.08 0.32 0 0.1 0.32 0 
0.12 0.32 0 0.14 0.32 0 0.16 0.32 0 
0.18 0.32 0 0.2 0.32 0 0.22 0.32 0 
0.24 0.32 0 0.26 0.32 0 0.28 0.32 0 
0.3 0.32 0 0.32 0.32 0 0.34 0.32 0 
0.36 0.32 0 0.38 0.32 0 0.4 0.32 0 
0.42 0.32 0 0.44 0.32 0 0.46 0.32 0 
0.48 0.32 0 0.5 0.32 0 0.52 0.32 0 
0.54 0.32 0 0.56 0.32 0 0.58 0.32 0 
[...]
CELL_DATA 2500
FIELD FieldData 1
pressure 1 2500 double
0.0061833065762 0.0061148312682 0.005924180494 0.0056502481558 0.0053329307708 0.0050048620636 0.0046906893749 0.0044082894824 0.0041702407401 
0.0039851089319 0.0038584893082 0.0037938288193 0.0037930677143 0.0038571339755 0.0039863079383 0.0041804582109 0.0044391440587 0.0047615871001 
0.0051465318161 0.0055920306373 0.0060951970637 0.006651967566 0.0072569019263 0.007903036348 0.0085817884619 0.009282900471 0.009994041265 
0.010701978298 0.011392772055 0.012051891214 0.012664635193 0.013216657301 0.01369455523 0.014086495574 0.014382836787 0.014576713134 
0.014664542675 0.01464642618 0.014526411596 0.014312610138 0.014017164501 0.013656085194 0.013248984649 0.012818744762 0.012391150226 
0.011994389044 0.011658289316 0.011412392791 0.011280787654 0.011268380232 0.0062497848399 0.0061834680895 0.0060217515016 0.005794072771 
0.0055296706667 0.0052543308313 0.0049889430987 0.0047494119381 0.0045472585778 0.0043904726362 0.0042843730116 0.0042323666559 0.0042365643683 
0.0042982420435 0.0044181452836 0.0045966427275 0.004833745114 0.0051290199735 0.005481439909 0.0058892016837 0.0063495454337 0.0068585932821 
0.0074112173864 0.00800094255 0.008619889373 0.0092587740575 0.0099060155999 0.010549644313 0.011177100011 0.011775307868 0.012331090642 
0.012831652723 0.01326511665 0.013621084792 0.013891194616 0.014069633715 0.014153581235 0.014143545876 0.014043577438 0.013861338684 
0.013608035841 0.013298217274 0.012949457809 0.012581945049 0.012217965031 0.011881232902 0.011595873409 0.011384848056 0.011267322807 
0.011255962995 0.0064452090219 0.006348056285 0.0061821202035 0.0059697286491 0.0057328651484 0.0054911796605 0.00526081747 0.0050542064437 
0.0048804749397 0.0047461254923 0.0046557213404 0.004612471694 0.0046186759508 0.0046760197224 0.0047857321365 0.0049486275454 0.0051650644206 
0.0054348556672 0.0057571571977 0.0061303497181 0.0065519197481 0.0070183427941 0.0075249734869 0.0080659532251 0.008634153033 0.00922117717 
0.0098159601358 0.010407558284 0.010984447152 0.011534607603 0.012045926409 0.012506657114 0.012905924852 0.013234251246 0.013484070146 
0.013650201956 0.01373025424 0.013724919252 0.013638145268 0.013477167652 0.013252395959 0.012977163601 0.012667353949 0.012340917314 
0.012017284217 0.011716659961 0.011459158202 0.011263809125 0.011147666452 0.011126166074 0.0067304013104 0.0065777601424 0.0063851910759 
0.006167919432 0.0059410438561 0.0057180015344 0.0055098495844 0.0053252431425 0.0051707828332 0.0050514640308 0.0049710909634 0.0049326074538 
0.004938332355 0.0049901009305 0.0050893244047 0.0052369895077 0.0054336215759 0.0056792273187 0.0059732219883 0.0063143382077 0.0067005148717 
0.0071287710712 0.0075950781718 0.0080942498553 0.0086198733943 0.0091643052232 0.0097168619502 0.010267371835 0.010805040042 0.011318557301 
0.011796486821 0.012227710187 0.012601916145 0.012910109227 0.013145109037 0.013302007445 0.013378550233 0.013375412308 0.013296341717 
0.013148156723 0.012940590986 0.012685993309 0.012398897823 0.012095486138 0.011792964376 0.01150887756 0.011260394175 0.011063651726 
0.010933374327 0.010883209228 0.0070646899403 0.0068446758274 0.006612670658 0.006377107569 0.0061466005405 0.0059289687276 0.005730849655 
0.0055577009365 0.0054139466219 0.0053031518588 0.0052281932567 0.0051914134744 0.005194745058 0.0052397910024 0.0053278611242 0.0054599724067 
0.005636821032 0.0058587271798 0.0061255486987 0.0064365618917 0.0067903156997 0.0071844735926 0.0076156626669 0.0080793509149 0.0085697720378 
0.0090799134181 0.0095994066097 0.010118612886 0.01062722261 0.0111143503 0.011568909611 0.011980052297 0.012337654562 0.012632826621 
0.012858414742 0.013009460993 0.013083584692 0.013081251863 0.013005905327 0.012863937521 0.01266450035 0.012419159925 0.012141416565 
0.011846120847 0.011548824018 0.011265106572 0.011009937498 0.0107971335 0.01063900479 0.01054620797 0.0074149504993 0.007123680785 
0.0068448424445 0.0065811580102 0.0063360172926 0.006112874001 0.0059149352381 0.0057450183076 0.0056054934819 0.0054983020957 0.0054250412383 
0.0053870811112 0.0053856723179 0.0054220145541 0.00549727851 0.0056125838795 0.0057689368617 0.0059671282038 0.0062075941025 0.0064902481451 
0.0068142985122 0.0071780672563 0.0075788279613 0.0080126764283 0.0084744470223 0.0089576853999 0.0094523325844 0.0099490608445 0.010437850921 
0.010908001533 0.011348497705 0.011748451611 0.012097598171 0.012386819397 0.012608664625 0.0127578292 0.012831552248 0.01282989634 
0.012755878164 0.012615429653 0.012417183018 0.012172089079 0.011892894069 0.011593514243 0.011288357793 0.010991648615 0.010716805594 
0.010475919405 0.010279330455 0.010135191289 0.0077541850481 0.0073908253593 0.0070604204818 0.0067616336225 0.0064941011761 0.0062579736344 
0.0060535860301 0.005881236077 0.0057410950683 0.0056332499347 0.0055578274324 0.005515130615 0.0055057342074 0.0055305171022 0.0055906334243 
0.0056874312092 0.0058223268485 0.0059966429489 0.0062114195369 0.0064672115606 0.0067638858992 0.0071004288346 0.0074747730015 0.0078836530187 
0.0083225000667 0.0087853867314 0.0092626056078 0.0097449207311 0.010222442922 0.010684452398 0.011119766076 0.01151718713 0.011866018087 
0.012156610058 0.012380913399 0.012532989488 0.012609440527 0.01260971591 0.012536259937 0.012394476829 0.012192504847 0.011940809679 
0.011651626268 0.011338295403 0.011014553009 0.010693833583 0.01038864118 0.010110016009 0.0098670733791 0.0096665009558 0.0080585535695 
0.0076233305671 0.0072389215645 0.0069012716924 0.0066071210975 0.0063537219243 0.0061386140807 0.0059595140566 0.0058143497646 0.0057013986322 
0.005619447699 0.0055679075016 0.0055468499193 0.0055569720407 0.0055995006397 0.0056760508392 0.0057884493751 0.0059385325878 0.0061279299459 
0.0063578431536 0.0066288279443 0.0069405832622 0.0072917536335 0.0076797541088 0.0081006304599 0.0085489691205 0.0090154964983 0.0094908470913 
0.0099651346236 0.010427455988 0.010866259606 0.011269806408 0.011626704834 0.01192649208 0.012160225446 0.012321040587 0.012404629448 
0.012409591437 0.012337617216 0.012193476459 0.011984798275 0.011721653824 0.011415972861 0.011080845871 0.010729776797 0.010375954397 
0.010031598901 0.0097074110813 0.0094121013376 0.0091519083541 0.0083063959015 0.0078008201039 0.0073624585716 0.0069850190826 0.0066625073947 
0.0063892932155 0.0061601441172 0.0059703231913 0.0058157552926 0.0056932029993 0.0056003896576 0.0055360409701 0.0054998497113 0.0054923812818 
0.0055149350101 0.0055693700116 0.005657902697 0.0057828840021 0.0059465642464 0.0061508514415 0.0063970664181 0.0066856985302 0.0070161700203 
0.0073866217493 0.0077937358317 0.0082326113359 0.0086945428444 0.00916982318 0.0096484830997 0.010119313693 0.010570233171 0.010988758131 
0.011362562115 0.011680094197 0.011931220362 0.012107841625 0.012204437325 0.012218481333 0.012150684089 0.012005025595 0.011788562989 
0.011511019538 0.011184187292 0.010821198684 0.010435738235 0.010041269651 0.0096503416862 0.0092740062829 0.0089213363789 0.0085989746458 
0.0084786248427 0.0079057533924 0.0074153236691 0.0069987019342 0.0066471165674 0.006352141433 0.0061060096493 0.0059018708569 0.0057339999461 
0.0055979320031 0.0054905118508 0.0054098703342 0.00535534735 0.0053273745864 0.0053273217607 0.0053573075728 0.0054199797108 0.0055182708105 
0.0056551369335 0.0058332833014 0.0060548812473 0.006321283036 0.0066327460222 0.0069881807912 0.0073849392255 0.0078186579402 0.0082814060365 
0.0087629485862 0.0092531947899 0.0097405507999 0.010212278869 0.010654975266 0.011055152169 0.011399897437 0.011677574457 0.011878513576 
0.011995639142 0.012024973502 0.011965963092 0.011821583486 0.011598199346 0.011305180606 0.010954304859 0.010559002662 0.010133522112 
0.0096920957666 0.0092481825824 0.0088138289192 0.0083991489351 0.0080118743084 0.0085586757273 0.0079224967933 0.0073825623926 0.0069277976838 
0.0065467786686 0.0062285542574 0.0059631595214 0.005741942141 0.0055577520893 0.00540502305 0.0052797759926 0.0051795719716 0.0051034270043 
0.0050516884552 0.0050258684168 0.0050284343299 0.0050625631585 0.0051318673336 0.0052400995035 0.0053908415511 0.0055871836216 0.0058314020982 
0.0061246488193 0.0064666655309 0.0068555386303 0.0072875091488 0.0077557093604 0.0082492294665 0.0087578659646 0.0092696035292 0.0097709576312 
0.010247453282 0.010684227713 0.011066732886 0.01138150057 0.011616920034 0.01176396832 0.011816827551 0.011773325184 0.011635143234 
0.0114077614 0.011100126147 0.010724069664 0.010293533989 0.009823680284 0.0093299744912 0.0088273336269 0.0083293907309 0.0078478945303 
0.0073922118926 0.0085315912895 0.0078362052778 0.007249375234 0.0067577226359 0.0063474134869 0.0060052282432 0.0057192108155 0.0054790347818 
0.0052761859175 0.0051040288388 0.0049578042187 0.0048345790139 0.0047331520209 0.0046539095135 0.0045986294747 0.0045702404046 0.0045725443584 
0.0046099127955 0.0046869615742 0.0048082101164 0.0049777306612 0.0051987962667 0.0054735383307 0.0058026263024 0.0061849851776 0.0066175702191 
0.0070949545382 0.007605447272 0.0081387909098 0.008682558729 0.0092224683018 0.0097428526297 0.010227277562 0.010659285037 0.011023227484 
0.011305143581 0.011493612024 0.011580510587 0.01156160554 0.011436903589 0.011210716122 0.010891413572 0.010490882827 0.010023737501 
0.0095063624055 0.0089558917145 0.008389219275 0.0078221173328 0.0072685001658 0.0067398221502 0.008383162563 0.0076325864459 0.0070016549492 
0.0064748757633 0.0060361462515 0.0056700653531 0.005362722357 0.0051021313147 0.0048784438798 0.0046840279067 0.0045134618499 0.004363465096 
0.0042327688334 0.0041219305807 0.0040331001277 0.0039697475875 0.0039363624764 0.0039381292722 0.0039805828511 0.004069246853 0.0042092595625 
0.0044049942003 0.004659682501 0.0049750535779 0.0053510046513 0.0057853251683 0.0062745706671 0.0068061418179 0.0073698670809 0.0079529765809 
0.0085403883538 0.0091151626381 0.0096591233552 0.010153635245 0.010580507915 0.010922979356 0.011166713526 0.011300732199 0.011318193737 
0.011216933804 0.010999697661 0.010674021368 0.010251757253 0.009748282369 0.0091814691607 0.0085705258264 0.007934822154 0.007292801235 
0.0066610412071 0.0060534846682 0.0080998515384 0.0072983822732 0.0066266613902 0.0060671216716 0.0056013795789 0.00521183299 0.0048826187048 
0.0046001389658 0.0043533126512 0.0041336535785 0.0039352356128 0.0037545756444 0.0035904528555 0.0034436794371 0.0033168360656 0.0032139811886 
0.0031403377505 0.0031019579155 0.0031053659151 0.0031571800609 0.0032637169174 0.0034305826725 0.0036622591917 0.0039616964376 0.0043299283968 
0.0047657348073 0.0052681363154 0.0058237334489 0.0064226319533 0.0070518420332 0.0076955385709 0.0083354807016 0.008951618515 0.0095228905582 
0.010028192528 0.010447474552 0.010762901491 0.010959990135 0.011028622494 0.010963829717 0.010766250449 0.010442192698 0.010003268457 
0.0094656208261 0.0088488154548 0.008174510558 0.0074650421528 0.0067420566946 0.0060252929192 0.0053315683808 0.0076692443445 0.0068217628638 
0.0061130815388 0.0055234848272 0.0050322767949 0.0046196783228 0.004267954426 0.0039620209491 0.0036897116057 0.0034418293921 0.0032120613508 
0.0029968059883 0.0027949459398 0.0026075874335 0.0024377784068 0.0022902085239 0.0021708891546 0.0020868104972 0.002045574047 0.0020550000052 
0.0021227109663 0.0022556949939 0.0024598539922 0.0027395476609 0.0030971493591 0.0035326439546 0.004047713586 0.0046288068849 0.0052664854343 
0.0059477099265 0.0066560388024 0.0073719715418 0.0080735094735 0.0087369517723 0.0093379166932 0.009852552713 0.010258876727 0.010538148783 
0.010676169031 0.010664368077 0.010500562501 0.010189267155 0.0097414962988 0.0091740434711 0.0085082963273 0.0077687044319 0.0069810607947 
0.0061707704188 0.00536125833 0.0045726235422 0.0070803827937 0.0061922742193 0.0054507033405 0.0048337916514 0.0043186013913 0.0038832972206 
0.0035084161075 0.0031775280542 0.0028774991044 0.0025985060581 0.0023339027887 0.002080003082 0.0018358205528 0.0016027875911 0.0013844611829 
0.0011862144759 0.0010149097445 0.00087854884721 0.00078589811091 0.00074608537962 0.00076816813296 0.00086067325595 0.001031111883 0.0012854755948 
0.0016277199158 0.0020592319093 0.0025843141834 0.0031906216124 0.0038691725781 0.0046071170357 0.0053876251534 0.006190074587 0.0069905250767 
0.0077624838828 0.0084779590689 0.0091087760824 0.0096281021585 0.010012087472 0.010241496835 0.010303177988 0.010191200068 0.0099075058613 
0.0094619588386 0.0088717301492 0.0081600538068 0.0073544653697 0.0064847110142 0.0055805518752 0.0046696831589 0.0037759428189 0.0063237497355 
0.0054006502135 0.0046303120889 0.0039888161919 0.0034511435184 0.0029935604934 0.0025950087117 0.0022378097184 0.0019079251505 0.0015949439905 
0.0012919134502 0.00099508884856 0.0007036471041 0.00041938565281 0.00014641332099 -0.00010916849426 -0.00033959857499 -0.00053580734407 -0.00068779246982 
-0.00078502408478 -0.00081688413366 -0.00077314220137 -0.0006444666061 -0.00042296606637 -0.00010275825166 0.00031941408459 0.00084850897641 0.001477962203 
0.0021976109346 0.0029953291705 0.0038542941274 0.0047530278018 0.0056657661427 0.0065631630414 0.0074133456023 0.0081833159775 0.008840659359 
0.0093554729044 0.0097023816362 0.009862462477 0.0098248666325 0.0095879246195 0.0091595470134 0.0085568015584 0.0078046484762 0.0069339346632 
0.0059788585964 0.0049741932468 0.0039525735866 0.0029421148028 0.0053911883061 0.0044388758948 0.0036439834331 0.0029807473544 0.0024222387758 
0.0019429602208 0.0015203537933 0.0011355579232 0.00077367591463 0.00042374617241 7.8544410914e-05 -0.00026569770414 -0.00060960781982 -0.00095099738176 
-0.001285186757 -0.0016053312467 -0.0019027525039 -0.0021672827351 -0.0023876311084 -0.0025517820596 -0.0026474338962 -0.0026624831686 -0.0025855553565 
-0.0024065743061 -0.0021173449454 -0.0017120682922 -0.0011874905447 -0.00053938831614 0.00021913715821 0.0010774703656 0.0020193279474 0.0030227738834 
0.0040604710836 0.0051002827194 0.0061062846606 0.0070402159448 0.0078633515912 0.0085387274231 0.0090335825109 0.009321818949 0.0093862229429 
0.0092201611353 0.0088284778584 0.0082273838495 0.0074432454015 0.0065103397868 0.0054678065182 0.0043561535568 0.003213735915 0.0020735943228 
0.0042760354458 0.0033004933183 0.0024854549249 0.0018035013662 0.0012259452283 0.00072564518096 0.00027863922067 -0.00013503950774 -0.00053108144049 
-0.00092094635403 -0.0013120912913 -0.0017082855739 -0.0021099560036 -0.0025145327381 -0.0029167844904 -0.0033091428212 -0.0036820221901 -0.0040241472344 
-0.0043229011835 -0.0045647092807 -0.0047354695101 -0.0048210400233 -0.0048077883505 -0.004683201287 -0.0044365447753 -0.0040595497774 -0.003547099717 
-0.0028889534915 -0.0020969493048 -0.001179978099 -0.00015326613088 0.0009613050873 0.0021352292655 0.0033338018089 0.004517023356 0.0056410410773 
0.0066601456824 0.0075292800226 0.008206935703 0.008658224018 0.0088578201936 0.0087924155157 0.0084622946249 0.0078817067715 0.0070778305253 
0.0060883307324 0.0049577377859 0.0037330850711 0.0024593596952 0.0011753150462 0.0029734198649 0.0019808726688 0.0011502714083 0.0004527242222 
-0.00014204543957 -0.00066267066651 -0.001134386391 -0.0015781587261 -0.002010394901 -0.0024430072679 -0.0028836711168 -0.0033361701798 -0.0038007656178 
-0.0042745546921 -0.0047518062112 -0.0052242735144 -0.0056814947613 -0.0061110959248 -0.0064991141045 -0.0068303585835 -0.0070888257624 -0.0072581819303 
-0.007322324962 -0.0072660330256 -0.007075708222 -0.0067402389792 -0.006252087885 -0.0055946258607 -0.0047777046795 -0.0038073248836 -0.0026968825517 
-0.001467514447 -0.00014830292541 0.0012239045715 0.0026052079679 0.0039460061306 0.0051930505736 0.0062921977533 0.0071917631585 0.0078462643362 
0.008220214507 0.0082915177386 0.0080539541681 0.0075182652661 0.0067114806526 0.0056743698277 0.0044572164314 0.0031144231977 0.0016986680999 
0.00025537109908 0.0014804942372 0.00047728574016 -0.00036426790643 -0.0010742994443 -0.0016844448376 -0.0022246264517 -0.0027211915452 -0.0031959948191 
-0.0036661006319 -0.0041438605325 -0.0046371924834 -0.0051499465487 -0.0056822870108 -0.0062310539715 -0.006790090692 -0.0073505385749 -0.0079011119868 
-0.008428371037 -0.0089170126626 -0.0093502006724 -0.0097099548709 -0.0099776180286 -0.010134417298 -0.010162133764 -0.010043890786 -0.0097650683615 
-0.0093143304936 -0.0086735973075 -0.0078442093389 -0.0068293770854 -0.0056399987044 -0.0042956402406 -0.0028251605525 -0.0012668856877 0.00033181015063 
0.0019156618651 0.0034235253895 0.0047912977754 0.005955696519 0.006858707931 0.0074523455832 0.007703190205 0.007596054596 0.0071360844742 
0.0063487176488 0.0052772004014 0.0039777702219 0.0025130639329 0.00094466128652 -0.00067420433878 -0.00020350837028 -0.0012111400035 -0.0020591584276 
-0.0027786229373 -0.0034022409689 -0.0039609942346 -0.0044821835673 -0.0049884646112 -0.0054975331766 -0.0060222028528 -0.0065706917147 -0.0071469959475 
-0.0077512753216 -0.0083802103484 -0.0090273159371 -0.0096832136198 -0.010335875759 -0.010970861578 -0.011571567766 -0.0121195177 -0.01259471364 
-0.012976075536 -0.013241988145 -0.013370974651 -0.013342509439 -0.013137975089 -0.012741769058 -0.012135719782 -0.011309406255 -0.010262897755 
-0.0090034902767 -0.0075481035097 -0.005924331405 -0.0041710424199 -0.0023383573513 -0.00048681036659 0.0013144900197 0.0029908301772 0.0044660160834 
0.0056675164285 0.0065322728877 0.0070125859382 0.0070812682304 0.0067351382812 0.005995985178 0.0049084251084 0.0035345823865 0.0019461554751 
0.00021498021127 -0.0015965344917 -0.0020773179313 -0.003083452028 -0.00393365852 -0.0046595441858 -0.0052945717244 -0.0058705530482 -0.0064156039771 
-0.0069531225383 -0.0075014408478 -0.0080738859178 -0.0086790596547 -0.0093212096006 -0.010000609775 -0.010713907274 -0.011454417014 -0.012212365923 
-0.012975100448 -0.013727278593 -0.014451071741 -0.01512640376 -0.015731255949 -0.016242066106 -0.016634248475 -0.016882857618 -0.016963410916 
-0.01685286133 -0.016530634242 -0.015979328756 -0.015175116742 -0.014113742542 -0.012797674477 -0.011239941181 -0.0094656124869 -0.0075128861075 
-0.005433568275 -0.0032926944997 -0.0011670275556 0.00085779432525 0.0026915885462 0.0042453933526 0.0054383656963 0.0062051909777 0.0065030548324 
0.006316980889 0.0056622937905 0.0045832300526 0.0031473232101 0.0014360329144 -0.00046708026167 -0.0024888388943 -0.0041376727811 -0.0051368827634 
-0.0059852859111 -0.0067146211819 -0.0073587782058 -0.0079501757429 -0.0085176230746 -0.0090852255885 -0.009671984389 -0.010291822833 -0.010953845327 
-0.011662693563 -0.012418913365 -0.013219282991 -0.014057082307 -0.014922302861 -0.015801812729 -0.016679498528 -0.01753641209 -0.01835095237 
-0.019099114714 -0.019754840034 -0.020290496008 -0.020677521131 -0.020887260568 -0.020892023455 -0.020666413906 -0.020189132917 -0.019429519033 
-0.018374116043 -0.017019338032 -0.015373002913 -0.013456234239 -0.011305091245 -0.0089716608173 -0.0065242934364 -0.0040466325082 -0.0016350960816 
0.00060545336982 0.0025679434118 0.0041510349938 0.0052681800259 0.0058567356275 0.0058856581524 0.005360086742 0.0043212957432 0.0028411555839 
0.0010113269028 -0.0010713790577 -0.0033211879735 -0.0063793798329 -0.0073669420272 -0.008209968644 -0.0089398794831 -0.0095906409725 -0.010195051673 
-0.010782506764 -0.01137781391 -0.012000718828 -0.012665875781 -0.013383065612 -0.014157520973 -0.014990266042 -0.015878416668 -0.016815416927 
-0.017791210123 -0.01879235737 -0.019802126585 -0.02080058085 -0.021764698843 -0.022668562122 -0.023483645284 -0.024179245744 -0.024723090392 
-0.025082157197 -0.025223754828 -0.025116930632 -0.024734403168 -0.02404516759 -0.023020224325 -0.021649029724 -0.01993290061 -0.017887500966 
-0.015545075354 -0.01295625933 -0.010191092768 -0.0073387972179 -0.0045058525606 -0.0018119468833 0.0006164789194 0.0026550718711 0.004192303997 