# vtk DataFile Version 4.1
vtk output
ASCII
DATASET STRUCTURED_GRID
DIMENSIONS 51 51 1
POINTS 2601 float
0 0 0 0.02 0 0 0.04 0 0 
0.06 0 0 0.08 0 0 0.1 0 0 
0.12 0 0 0.14 0 0 0.16 0 0 
0.18 0 0 0.2 0 0 0.22 0 0 
0.24 0 0 0.26 0 0 0.28 0 0 
0.3 0 0 0.32 0 0 0.34 0 0 
0.36 0 0 0.38 0 0 0.4 0 0 
0.42 0 0 0.44 0 0 0.46 0 0 
0.48 0 0 0.5 0 0 0.52 0 0 
0.54 0 0 0.56 0 0 0.58 0 0 
0.6 0 0 0.62 0 0 0.64 0 0 
0.66 0 0 0.68 0 0 0.7 0 0 
0.72 0 0 0.74 0 0 0.76 0 0 
0.78 0 0 0.8 0 0 0.82 0 0 
0.84 0 0 0.86 0 0 0.88 0 0 
0.9 0 0 0.92 0 0 0.94 0 0 
0.96 0 0 0.98 0 0 1 0 0 
0 0.02 0 0.02 0.02 0 0.04 0.02 0 
0.06 0.02 0 0.08 0.02 0 0.1 0.02 0 
0.12 0.02 0 0.14 0.02 0 0.16 0.02 0 
0.18 0.02 0 0.2 0.02 0 0.22 0.02 0 
0.24 0.02 0 0.26 0.02 0 0.28 0.02 0 
0.3 0.02 0 0.32 0.02 0 0.34 0.02 0 
0.36 0.02 0 0.38 0.02 0 0.4 0.02 0 
0.42 0.02 0 0.44 0.02 0 0.46 0.02 0 
0.48 0.02 0 0.5 0.02 0 0.52 0.02 0 
0.54 0.02 0 0.56 0.02 0 0.58 0.02 0 
0.6 0.02 0 0.62 0.02 0 0.64 0.02 0 
0.66 0.02 0 0.68 0.02 0 0.7 0.02 0 
0.72 0.02 0 0.74 0.02 0 0.76 0.02 0 
0.78 0.02 0 0.8 0.02 0 0.82 0.02 0 
0.84 0.02 0 0.86 0.02 0 0.88 0.02 0 
0.9 0.02 0 0.92 0.02 0 0.94 0.02 0 
0.96 0.02 0 0.98 0.02 0 1 0.02 0 
0 0.04 0 0.02 0.04 0 0.04 0.04 0 
0.06 0.04 0 0.08 0.04 0 0.1 0.04 0 
0.12 0.04 0 0.14 0.04 0 0.16 0.04 0 
0.18 0.04 0 0.2 0.04 0 0.22 0.04 0 
0.24 0.04 0 0.26 0.04 0 0.28 0.04 0 
0.3 0.04 0 0.32 0.04 0 0.34 0.04 0 
0.36 0.04 0 0.38 0.04 0 0.4 0.04 0 
0.42 0.04 0 0.44 0.04 0 0.46 0.04 0 
0.48 0.04 0 0.5 0.04 0 0.52 0.04 0 
0.54 0.04 0 0.56 0.04 0 0.58 0.04 0 
0.6 0.04 0 0.62 0.04 0 0.64 0.04 0 
0.66 0.04 0 0.68 0.04 0 0.7 0.04 0 
0.72 0.04 0 0.74 0.04 0 0.76 0.04 0 
0.78 0.04 0 0.8 0.04 0 0.82 0.04 0 
0.84 0.04 0 0.86 0.04 0 0.88 0.04 0 
0.9 0.04 0 0.92 0.04 0 0.94 0.04 0 
0.96 0.04 0 0.98 0.04 0 1 0.04 0 
0 0.06 0 0.02 0.06 0 0.04 0.06 0 
0.06 0.06 0 0.08 0.06 0 0.1 0.06 0 
0.12 0.06 0 0.14 0.06 0 0.16 0.06 0 
0.18 0.06 0 0.2 0.06 0 0.22 0.06 0 
0.24 0.06 0 0.26 0.06 0 0.28 0.06 0 
0.3 0.06 0 0.32 0.06 0 0.34 0.06 0 
0.36 0.06 0 0.38 0.06 0 0.4 0.06 0 
0.42 0.06 0 0.44 0.06 0 0.46 0.06 0 
0.48 0.06 0 0.5 0.06 0 0.52 0.06 0 
0.54 0.06 0 0.56 0.06 0 0.58 0.06 0 
0.6 0.06 0 0.62 0.06 0 0.64 0.06 0 
0.66 0.06 0 0.68 0.06 0 0.7 0.06 0 
0.72 0.06 0 0.74 0.06 0 0.76 0.06 0 
0.78 0.06 0 0.8 0.06 0 0.82 0.06 0 
0.84 0.06 0 0.86 0.06 0 0.88 0.06 0 
0.9 0.06 0 0.92 0.06 0 0.94 0.06 0 
0.96 0.06 0 0.98 0.06 0 1 0.06 0 
0 0.08 0 0.02 0.08 0 0.04 0.08 0 
0.06 0.08 0 0.08 0.08 0 0.1 0.08 0 
0.12 0.08 0 0.14 0.08 0 0.16 0.08 0 
0.18 0.08 0 0.2 0.08 0 0.22 0.08 0 
0.24 0.08 0 0.26 0.08 0 0.28 0.08 0 
0.3 0.08 0 0.32 0.08 0 0.34 0.08 0 
0.36 0.08 0 0.38 0.08 0 0.4 0.08 0 
0.42 0.08 0 0.44 0.08 0 0.46 0.08 0 
0.48 0.08 0 0.5 0.08 0 0.52 0.08 0 
0.54 0.08 0 0.56 0.08 0 0.58 0.08 0 
0.6 0.08 0 0.62 0.08 0 0.64 0.08 0 
0.66 0.08 0 0.68 0.08 0 0.7 0.08 0 
0.72 0.08 0 0.74 0.08 0 0.76 0.08 0 
0.78 0.08 0 0.8 0.08 0 0.82 0.08 0 
0.84 0.08 0 0.86 0.08 0 0.88 0.08 0 
0.9 0.08 0 0.92 0.08 0 0.94 0.08 0 
0.96 0.08 0 0.98 0.08 0 1 0.08 0 
0 0.1 0 0.02 0.1 0 0.04 0.1 0 
0.06 0.1 0 0.08 0.1 0 0.1 0.1 0 
0.12 0.1 0 0.14 0.1 0 0.16 0.1 0 
0.18 0.1 0 0.2 0.1 0 0.22 0.1 0 
0.24 0.1 0 0.26 0.1 0 0.28 0.1 0 
0.3 0.1 0 0.32 0.1 0 0.34 0.1 0 
0.36 0.1 0 0.38 0.1 0 0.4 0.1 0 
0.42 0.1 0 0.44 0.1 0 0.46 0.1 0 
0.48 0.1 0 0.5 0.1 0 0.52 0.1 0 
0.54 0.1 0 0.56 0.1 0 0.58 0.1 0 
0.6 0.1 0 0.62 0.1 0 0.64 0.1 0 
0.66 0.1 0 0.68 0.1 0 0.7 0.1 0 
0.72 0.1 0 0.74 0.1 0 0.76 0.1 0 
0.78 0.1 0 0.8 0.1 0 0.82 0.1 0 
0.84 0.1 0 0.86 0.1 0 0.88 0.1 0 
0.9 0.1 0 0.92 0.1 0 0.94 0.1 0 
0.96 0.1 0 0.98 0.1 0 1 0.1 0 
0 0.12 0 0.02 0.12 0 0.04 0.12 0 
0.06 0.12 0 0.08 0.12 0 0.1 0.12 0 
0.12 0.12 0 0.14 0.12 0 0.16 0.12 0 
0.18 0.12 0 0.2 0.12 0 0.22 0.12 0 
0.24 0.12 0 0.26 0.12 0 0.28 0.12 0 
0.3 0.12 0 0.32 0.12 0 0.34 0.12 0 
0.36 0.12 0 0.38 0.12 0 0.4 0.12 0 
0.42 0.12 0 0.44 0.12 0 0.46 0.12 0 
0.48 0.12 0 0.5 0.12 0 0.52 0.12 0 
0.54 0.12 0 0.56 0.12 0 0.58 0.12 0 
0.6 0.12 0 0.62 0.12 0 0.64 0.12 0 
0.66 0.12 0 0.68 0.12 0 0.7 0.12 0 
0.72 0.12 0 0.74 0.12 0 0.76 0.12 0 
0.78 0.12 0 0.8 0.12 0 0.82 0.12 0 
0.84 0.12 0 0.86 0.12 0 0.88 0.12 0 
0.9 0.12 0 0.92 0.12 0 0.94 0.12 0 
0.96 0.12 0 0.98 0.12 0 1 0.12 0 
0 0.14 0 0.02 0.14 0 0.04 0.14 0 
0.06 0.14 0 0.08 0.14 0 0.1 0.14 0 
0.12 0.14 0 0.14 0.14 0 0.16 0.14 0 
0.18 0.14 0 0.2 0.14 0 0.22 0.14 0 
0.24 0.14 0 0.26 0.14 0 0.28 0.14 0 
0.3 0.14 0 0.32 0.14 0 0.34 0.14 0 
0.36 0.14 0 0.38 0.14 0 0.4 0.14 0 
0.42 0.14 0 0.44 0.14 0 0.46 0.14 0 
0.48 0.14 0 0.5 0.14 0 0.52 0.14 0 
0.54 0.14 0 0.56 0.14 0 0.58 0.14 0 
0.6 0.14 0 0.62 0.14 0 0.64 0.14 0 
0.66 0.14 0 0.68 0.14 0 0.7 0.14 0 
0.72 0.14 0 0.74 0.14 0 0.76 0.14 0 
0.78 0.14 0 0.8 0.14 0 0.82 0.14 0 
0.84 0.14 0 0.86 0.14 0 0.88 0.14 0 
0.9 0.14 0 0.92 0.14 0 0.94 0.14 0 
0.96 0.14 0 0.98 0.14 0 1 0.14 0 
0 0.16 0 0.02 0.16 0 0.04 0.16 0 
0.06 0.16 0 0.08 0.16 0 0.1 0.16 0 
0.12 0.16 0 0.14 0.16 0 0.16 0.16 0 
0.18 0.16 0 0.2 0.16 0 0.22 0.16 0 
0.24 0.16 0 0.26 0.16 0 0.28 0.16 0 
0.3 0.16 0 0.32 0.16 0 0.34 0.16 0 
0.36 0.16 0 0.38 0.16 0 0.4 0.16 0 
0.42 0.16 0 0.44 0.16 0 0.46 0.16 0 
0.48 0.16 0 0.5 0.16 0 0.52 0.16 0 
0.54 0.16 0 0.56 0.16 0 0.58 0.16 0 
0.6 0.16 0 0.62 0.16 0 0.64 0.16 0 
0.66 0.16 0 0.68 0.16 0 0.7 0.16 0 
0.72 0.16 0 0.74 0.16 0 0.76 0.16 0 
0.78 0.16 0 0.8 0.16 0 0.82 0.16 0 
0.84 0.16 0 0.86 0.16 0 0.88 0.16 0 
0.9 0.16 0 0.92 0.16 0 0.94 0.16 0 
0.96 0.16 0 0.98 0.16 0 1 0.16 0 
0 0.18 0 0.02 0.18 0 0.04 0.18 0 
0.06 0.18 0 0.08 0.18 0 0.1 0.18 0 
0.12 0.18 0 0.14 0.18 0 0.16 0.18 0 
0.18 0.18 0 0.2 0.18 0 0.22 0.18 0 
0.24 0.18 0 0.26 0.18 0 0.28 0.18 0 
0.3 0.18 0 0.32 0.18 0 0.34 0.18 0 
0.36 0.18 0 0.38 0.18 0 0.4 0.18 0 
0.42 0.18 0 0.44 0.18 0 0.46 0.18 0 
0.48 0.18 0 0.5 0.18 0 0.52 0.18 0 
0.54 0.18 0 0.56 0.18 0 0.58 0.18 0 
0.6 0.18 0 0.62 0.18 0 0.64 0.18 0 
0.66 0.18 0 0.68 0.18 0 0.7 0.18 0 
0.72 0.18 0 0.74 0.18 0 0.76 0.18 0 
0.78 0.18 0 0.8 0.18 0 0.82 0.18 0 
0.84 0.18 0 0.86 0.18 0 0.88 0.18 0 
0.9 0.18 0 0.92 0.18 0 0.94 0.18 0 
0.96 0.18 0 0.98 0.18 0 1 0.18 0 
0 0.2 0 0.02 0.2 0 0.04 0.2 0 
0.06 0.2 0 0.08 0.2 0 0.1 0.2 0 
0.12 0.2 0 0.14 0.2 0 0.16 0.2 0 
0.18 0.2 0 0.2 0.2 0 0.22 0.2 0 
0.24 0.2 0 0.26 0.2 0 0.28 0.2 0 
0.3 0.2 0 0.32 0.2 0 0.34 0.2 0 
0.36 0.2 0 0.38 0.2 0 0.4 0.2 0 
0.42 0.2 0 0.44 0.2 0 0.46 0.2 0 
0.48 0.2 0 0.5 0.2 0 0.52 0.2 0 
0.54 0.2 0 0.56 0.2 0 0.58 0.2 0 
0.6 0.2 0 0.62 0.2 0 0.64 0.2 0 
0.66 0.2 0 0.68 0.2 0 0.7 0.2 0 
0.72 0.2 0 0.74 0.2 0 0.76 0.2 0 
0.78 0.2 0 0.8 0.2 0 0.82 0.2 0 
0.84 0.2 0 0.86 0.2 0 0.88 0.2 0 
0.9 0.2 0 0.92 0.2 0 0.94 0.2 0 
0.96 0.2 0 0.98 0.2 0 1 0.2 0 
0 0.22 0 0.02 0.22 0 0.04 0.22 0 
0.06 0.22 0 0.08 0.22 0 0.1 0.22 0 
0.12 0.22 0 0.14 0.22 0 0.16 0.22 0 
0.18 0.22 0 0.2 0.22 0 0.22 0.22 0 
0.24 0.22 0 0.26 0.22 0 0.28 0.22 0 
0.3 0.22 0 0.32 0.22 0 0.34 0.22 0 
0.36 0.22 0 0.38 0.22 0 0.4 0.22 0 
0.42 0.22 0 0.44 0.22 0 0.46 0.22 0 
0.48 0.22 0 0.5 0.22 0 0.52 0.22 0 
0.54 0.22 0 0.56 0.22 0 0.58 0.22 0 
0.6 0.22 0 0.62 0.22 0 0.64 0.22 0 
0.66 0.22 0 0.68 0.22 0 0.7 0.22 0 
0.72 0.22 0 0.74 0.22 0 0.76 0.22 0 
0.78 0.22 0 0.8 0.22 0 0.82 0.22 0 
0.84 0.22 0 0.86 0.22 0 0.88 0.22 0 
0.9 0.22 0 0.92 0.22 0 0.94 0.22 0 
0.96 0.22 0 0.98 0.22 0 1 0.22 0 
0 0.24 0 0.02 0.24 0 0.04 0.24 0 
0.06 0.24 0 0.08 0.24 0 0.1 0.24 0 
0.12 0.24 0 0.14 0.24 0 0.16 0.24 0 
0.18 0.24 0 0.2 0.24 0 0.22 0.24 0 
0.24 0.24 0 0.26 0.24 0 0.28 0.24 0 
0.3 0.24 0 0.32 0.24 0 0.34 0.24 0 
0.36 0.24 0 0.38 0.24 0 0.4 0.24 0 
0.42 0.24 0 0.44 0.24 0 0.46 0.24 0 
0.48 0.24 0 0.5 0.24 0 0.52 0.24 0 
0.54 0.24 0 0.56 0.24 0 0.58 0.24 0 
0.6 0.24 0 0.62 0.24 0 0.64 0.24 0 
0.66 0.24 0 0.68 0.24 0 0.7 0.24 0 
0.72 0.24 0 0.74 0.24 0 0.76 0.24 0 
0.78 0.24 0 0.8 0.24 0 0.82 0.24 0 
0.84 0.24 0 0.86 0.24 0 0.88 0.24 0 
0.9 0.24 0 0.92 0.24 0 0.94 0.24 0 
0.96 0.24 0 0.98 0.24 0 1 0.24 0 
0 0.26 0 0.02 0.26 0 0.04 0.26 0 
0.06 0.26 0 0.08 0.26 0 0.1 0.26 0 
0.12 0.26 0 0.14 0.26 0 0.16 0.26 0 
0.18 0.26 0 0.2 0.26 0 0.22 0.26 0 
0.24 0.26 0 0.26 0.26 0 0.28 0.26 0 
0.3 0.26 0 0.32 0.26 0 0.34 0.26 0 
0.36 0.26 0 0.38 0.26 0 0.4 0.26 0 
0.42 0.26 0 0.44 0.26 0 0.46 0.26 0 
0.48 0.26 0 0.5 0.26 0 0.52 0.26 0 
0.54 0.26 0 0.56 0.26 0 0.58 0.26 0 
0.6 0.26 0 0.62 0.26 0 0.64 0.26 0 
0.66 0.26 0 0.68 0.26 0 0.7 0.26 0 
0.72 0.26 0 0.74 0.26 0 0.76 0.26 0 
0.78 0.26 0 0.8 0.26 0 0.82 0.26 0 
0.84 0.26 0 0.86 0.26 0 0.88 0.26 0 
0.9 0.26 0 0.92 0.26 0 0.94 0.26 0 
0.96 0.26 0 0.98 0.26 0 1 0.26 0 
0 0.28 0 0.02 0.28 0 0.04 0.28 0 
0.06 0.28 0 0.08 0.28 0 0.1 0.28 0 
0.12 0.28 0 0.14 0.28 0 0.16 0.28 0 
0.18 0.28 0 0.2 0.28 0 0.22 0.28 0 
0.24 0.28 0 0.26 0.28 0 0.28 0.28 0 
0.3 0.28 0 0.32 0.28 0 0.34 0.28 0 
0.36 0.28 0 0.38 0.28 0 0.4 0.28 0 
0.42 0.28 0 0.44 0.28 0 0.46 0.28 0 
0.48 0.28 0 0.5 0.28 0 0.52 0.28 0 
0.54 0.28 0 0.56 0.28 0 0.58 0.28 0 
0.6 0.28 0 0.62 0.28 0 0.64 0.28 0 
0.66 0.28 0 0.68 0.28 0 0.7 0.28 0 
0.72 0.28 0 0.74 0.28 0 0.76 0.28 0 
0.78 0.28 0 0.8 0.28 0 0.82 0.28 0 
0.84 0.28 0 0.86 0.28 0 0.88 0.28 0 
0.9 0.28 0 0.92 0.28 0 0.94 0.28 0 
0.96 0.28 0 0.98 0.28 0 1 0.28 0 
0 0.3 0 0.02 0.3 0 0.04 0.3 0 
0.06 0.3 0 0.08 0.3 0 0.1 0.3 0 
0.12 0.3 0 0.14 0.3 0 0.16 0.3 0 
0.18 0.3 0 0.2 0.3 0 0.22 0.3 0 
0.24 0.3 0 0.26 0.3 0 0.28 0.3 0 
0.3 0.3 0 0.32 0.3 0 0.34 0.3 0 
0.36 0.3 0 0.38 0.3 0 0.4 0.3 0 
0.42 0.3 0 0.44 0.3 0 0.46 0.3 0 
0.48 0.3 0 0.5 0.3 0 0.52 0.3 0 
0.54 0.3 0 0.56 0.3 0 0.58 0.3 0 
0.6 0.3 0 0.62 0.3 0 0.64 0.3 0 
0.66 0.3 0 0.68 0.3 0 0.7 0.3 0 
0.72 0.3 0 0.74 0.3 0 0.76 0.3 0 
0.78 0.3 0 0.8 0.3 0 0.82 0.3 0 
0.84 0.3 0 0.86 0.3 0 0.88 0.3 0 
0.9 0.3 0 0.92 0.3 0 0.94 0.3 0 
0.96 0.3 0 0.98 0.3 0 1 0.3 0 
0 0.32 0 0.02 0.32 0 0.04 0.32 0 
0.06 0.32 0 0.08 0.32 0 0.1 0.32 0 
0.12 0.32 0 0.14 0.32 0 0.16 0.32 0 
0.18 0.32 0 0.2 0.32 0 0.22 0.32 0 
0.24 0.32 0 0.26 0.32 0 0.28 0.32 0 
0.3 0.32 0 0.32 0.32 0 0.34 0.32 0 
0.36 0.32 0 0.38 0.32 0 0.4 0.32 0 
0.42 0.32 0 0.44 0.32 0 0.46 0.32 0 
0.48 0.32 0 0.5 0.32 0 0.52 0.32 0 
0.54 0.32 0 0.56 0.32 0 0.58 0.32 0 
[...]
CELL_DATA 2500
FIELD FieldData 1
pressure 1 2500 double
0.006188148459 0.0061190351703 0.0059246880949 0.0056464125524 0.0053262489264 0.004997786675 0.0046854572684 0.0044061952719 0.0041714319294 
0.0039887821055 0.0038633112207 0.0037984140367 0.0037963730583 0.0038586758588 0.0039861727669 0.0041791437683 0.0044373168234 0.0047598506492 
0.0051452764354 0.005591389919 0.0060950948271 0.0066522128195 0.007257285667 0.0079033981719 0.0085820425322 0.0092830281544 0.0099940665665 
0.010701941816 0.011392711947 0.01205183405 0.012664594408 0.013216635898 0.013694549866 0.01408650038 0.014382846081 0.014576722824 
0.014664550557 0.014646431554 0.014526414631 0.014312611347 0.014017164444 0.013656084364 0.01324898347 0.012818743572 0.012391149236 
0.011994388331 0.011658288849 0.011412392468 0.011280787389 0.011268379981 0.0062520509865 0.0061826846731 0.0060185429716 0.0057903769358 
0.0055272422472 0.0052540607442 0.0049907620284 0.004752574627 0.0045507502137 0.0043933675309 0.0042860725423 0.0042326966457 0.004235739359 
0.0042967286482 0.0044164797669 0.0045952658276 0.0048329022805 0.0051287444962 0.0054816044443 0.0058896038022 0.0063499903377 0.0068589476088 
0.0074114254835 0.0080010125269 0.0086198645885 0.0092587050825 0.009905942237 0.010549588863 0.011177069374 0.011775299056 0.012331096359 
0.012831665299 0.013265130148 0.013621095726 0.013891201725 0.014069637256 0.014153582197 0.014143545337 0.014043576221 0.013861337303 
0.013608034562 0.01329821623 0.012949457071 0.012581944612 0.012217964829 0.011881232838 0.011595873377 0.011384847989 0.011267322697 
0.011255962851 0.0064432600905 0.006345212088 0.0061807763101 0.0059710290105 0.0057363921549 0.0054955733085 0.0052645894485 0.0050563306506 
0.0048806150408 0.0047445690879 0.004653154523 0.0046097064792 0.0046164077153 0.0046746661012 0.0047853803813 0.0049490861341 0.005165983927 
0.0054358672116 0.0057579808972 0.0061308465957 0.0065520862406 0.0070182660762 0.0075247739411 0.0080657369464 0.0086339863911 0.009221083752 
0.0098159323982 0.01040757381 0.010984482114 0.011534644161 0.012045954694 0.012506673951 0.012905931375 0.013234250601 0.013484065759 
0.013650196544 0.013730249459 0.013724915768 0.013638143107 0.013477166549 0.013252395581 0.012977163681 0.012667354281 0.012340917716 
0.01201728456 0.011716660168 0.011459158253 0.011263809067 0.011147666342 0.011126165944 0.0067273044431 0.0065769161037 0.006387493973 
0.0061722491593 0.0059454418021 0.0057207654393 0.0055101747328 0.0053232967061 0.0051674021286 0.0050477352974 0.0049679827739 0.0049307346592 
0.004937867978 0.0049908231099 0.0050907613076 0.0052386046345 0.0054349769108 0.0056800785621 0.0059735316105 0.0063142234186 0.0067001649773 
0.0071283692853 0.0075947513694 0.0080940532589 0.0086198028771 0.0091643232102 0.0097169229041 0.010267439265 0.010805092761 0.011318588118 
0.011796497719 0.012227707323 0.012601906285 0.012910097752 0.013145099232 0.01330200066 0.013378546451 0.013375410809 0.013296341645 
0.013148157366 0.012940591869 0.012685994171 0.01239889851 0.012095486569 0.011792964548 0.011508877517 0.011260393999 0.011063651512 
0.010933374118 0.010883209036 0.0070634514144 0.0068460278384 0.0066156113508 0.006379824459 0.0061477163462 0.0059280478925 0.0057283337027 
0.0055545053234 0.0054110216378 0.005301184118 0.0052274800945 0.0051918736429 0.005196019834 0.0052413942094 0.0053293347351 0.005461004485 
0.0056372967185 0.0058587093055 0.0061252099347 0.006436102818 0.0067898989709 0.0071841904416 0.007615532334 0.0080793423739 0.00856983312 
0.0090799951431 0.0095994763478 0.010118656645 0.010627240269 0.011114348935 0.011568897958 0.011980037623 0.012337641551 0.012632817419 
0.012858409601 0.013009459097 0.01308358484 0.013081252972 0.013005906667 0.012863938688 0.012664501193 0.012419160429 0.012141416748 
0.011846120768 0.011548823762 0.011265106225 0.011009937148 0.010797133197 0.01063900453 0.010546207738 0.0074154295441 0.007124821214 
0.0068455852541 0.0065808489576 0.0063346976869 0.006111084174 0.0059133317643 0.0057440640085 0.0056053427994 0.0054988459942 0.0054260168051 
0.0053881791282 0.0053866204596 0.0054226336913 0.0054975089074 0.0056124771522 0.0057686178424 0.0059667422414 0.0062072601562 0.0064900324596 
0.0068142121939 0.0071780815258 0.0075788967074 0.0080127563944 0.0084745097905 0.0089577200505 0.0094523415912 0.0099490531808 0.010437836181 
0.010907986688 0.011348486349 0.011748444726 0.012097595218 0.012386819168 0.012608665853 0.012757830876 0.012831553732 0.012829897367 
0.012755878722 0.012615429834 0.012417182947 0.012172088848 0.01189289373 0.011593513855 0.011288357403 0.010991648256 0.010716805295 
0.010475919157 0.010279330232 0.010135191079 0.0077545004773 0.0073903486193 0.0070593068388 0.0067604492207 0.0064934366709 0.006258150246 
0.0060545350959 0.0058825951062 0.0057424189596 0.0056341969619 0.0055582440659 0.0055150417189 0.0055052836989 0.0055298988208 0.0055900320418 
0.005686980334 0.0058220880489 0.0059966073601 0.0062115286323 0.0064673874095 0.0067640589148 0.0071005546087 0.0074748362546 0.0078836615522 
0.00832247397 0.00878534779 0.0092625701949 0.0097448970485 0.010222432116 0.010684451404 0.011119770533 0.011517193335 0.011866023693 
0.01215661399 0.012380915506 0.012532990113 0.012609440193 0.01260971513 0.012536259068 0.01239447606 0.012192504252 0.01194080924 
0.011651625943 0.011338295163 0.01101455282 0.010693833423 0.010388641036 0.010110015859 0.0098670732198 0.0096665007918 0.0080578162858 
0.0076220312717 0.0072379735702 0.006901321145 0.0066082729008 0.0063555833729 0.0061405376073 0.005960905775 0.0058148878329 0.0057010866798 
0.0056185327438 0.0055667418701 0.0055457653348 0.0055561983992 0.0055991339219 0.0056760622801 0.0057887238441 0.0059389210534 0.0061282991126 
0.0063581078483 0.0066289598879 0.0069405999064 0.0072916970045 0.0076796697319 0.0081005530197 0.0085489168641 0.0090154727478 0.0094908456416 
0.0099651458108 0.01042747108 0.010866272914 0.011269815452 0.011626709404 0.011926493155 0.012160224379 0.012321038579 0.012404627352 
0.012409589725 0.012337616028 0.01219347575 0.011984797927 0.0117216537 0.011415972857 0.011080845912 0.010729776823 0.010375954382 
0.010031598838 0.0097074109728 0.0094121012072 0.009151908216 0.0083053267832 0.0078000605463 0.0073626187321 0.0069861267002 0.0066641294143 
0.0063908059494 0.0061610306875 0.0059703643672 0.0058150513575 0.0056920640374 0.0055991829001 0.005535068038 0.0054992822905 0.0054922504711 
0.0055151578805 0.005569797349 0.0056583732132 0.0057832704513 0.0059467996361 0.0061509306786 0.0063970282909 0.0066855996153 0.0070160618793 
0.0073865378161 0.0077936888253 0.0082325980687 0.0086945518834 0.0091698419001 0.0096485019628 0.010119327606 0.010570240852 0.010988760581 
0.011362561156 0.011680091595 0.011931217428 0.01210783912 0.012204435561 0.0122184803 0.012150683606 0.012005025463 0.011788563047 
0.011511019672 0.011184187437 0.010821198792 0.010435738274 0.010041269619 0.0096503415949 0.0092740061545 0.0089213362413 0.0085989745066 
0.0084781694136 0.0079058012067 0.0074158700191 0.0069994546978 0.0066477095195 0.0063523113424 0.0061056993316 0.0059012170357 0.0057332361022 
0.0055972778351 0.0054901048284 0.0054097503609 0.0053554755258 0.0053276639481 0.0053276682573 0.0053576175543 0.0054201908994 0.005518362325 
0.0056551256988 0.005833209153 0.006054788073 0.0063212041184 0.0066326976704 0.006988163758 0.007384944673 0.0078186741498 0.0082814232615 
0.0087629612735 0.0092532013676 0.0097405522684 0.010212277232 0.010654972374 0.011055149243 0.011399895098 0.011677572894 0.01187851272 
0.01199563881 0.012024973467 0.011965963168 0.011821583576 0.011598199411 0.011305180641 0.010954304864 0.010559002625 0.010133522028 
0.0096920956456 0.0092481824359 0.0088138287659 0.0083991487871 0.0080118741626 0.0085588678373 0.0079226554595 0.0073825438294 0.0069275604852 
0.006546376337 0.0062281132289 0.0059628275522 0.0057418222921 0.0055578600243 0.0054052927513 0.0052801032791 0.0051798629537 0.0051036257733 
0.0050517796902 0.0050258657582 0.0050283667133 0.005062464484 0.0051317691433 0.0052400251972 0.0053908023876 0.0055871782675 0.005831420227 
0.0061246767925 0.0064666915961 0.0068555559057 0.0072875159672 0.0077557078314 0.0082492233609 0.0087578588466 0.0092695977278 0.0097709540456 
0.010247451723 0.010684227503 0.011066733345 0.011381501214 0.011616920593 0.01176396868 0.011816827677 0.011773325114 0.011635143047 
0.011407761172 0.011100125929 0.010724069472 0.010293533812 0.0098236801153 0.0093299743291 0.0088273334701 0.0083293905839 0.0078478943898 
0.0073922117524 0.0085318290058 0.0078359493414 0.0072487734009 0.0067570809149 0.0063470068451 0.0060052149689 0.005719595285 0.0054796832249 
0.005276890313 0.0051045922864 0.0049581083433 0.0048346068643 0.0047329676918 0.0046536157501 0.0045983268421 0.0045700013702 0.0045724040538 
0.0046098721367 0.0046869972842 0.0048082873977 0.0049778154485 0.0051988641179 0.0054735780112 0.005802638365 0.0061849775003 0.0066175529233 
0.0070949362437 0.0076054332399 0.0081387829506 0.0086825561772 0.0092224692902 0.0097428551636 0.010227280193 0.010659287031 0.011023228651 
0.011305144035 0.011493611974 0.011580510232 0.011561605056 0.011436903106 0.01121071571 0.010891413256 0.01049088259 0.010023737315 
0.0095063622532 0.0089558915806 0.0083892191498 0.007822117213 0.0072685000448 0.0067398220265 0.0083830890798 0.0076320955697 0.0070010986335 
0.0064745831325 0.006036274604 0.0056705850527 0.0053634609739 0.0051028563392 0.0048789542145 0.0046842195699 0.0045133452258 0.0043631365082 
0.0042323594644 0.0041215586977 0.0040328420934 0.0039696299721 0.0039363697865 0.0039382199879 0.003980707349 0.004069362573 0.0042093403818 
0.0044050325227 0.0046596851269 0.0049750345187 0.0053509782568 0.0057853017867 0.0062745553434 0.0068061351139 0.0073698668999 0.0079529799716 
0.0085403927303 0.0091151663538 0.0096591257569 0.010153636367 0.010580508102 0.010922979001 0.01116671293 0.011300731555 0.011318193164 
0.011216933353 0.010999697337 0.010674021149 0.010251757102 0.0097482822551 0.0091814690657 0.0085705257356 0.0079348220604 0.0072928011371 
0.0066610411025 0.0060534845613 0.0080996528 0.0072980988501 0.0066265213831 0.006067234274 0.0056017190746 0.0052122810689 0.0048830251624 
0.0046003819181 0.0043533391079 0.0041334872448 0.0039349538621 0.0037542721372 0.0035902048525 0.0034435304 0.0033167936968 0.003214025407 
0.0031404330054 0.0031020659481 0.0031054561878 0.0031572359405 0.0032637365639 0.0034305750773 0.0036622377914 0.0039616733281 0.0043299110655 
0.0047657257337 0.0052681344085 0.0058237360045 0.0064226362182 0.0070518460508 0.0076955413646 0.0083354821033 0.0089516188362 0.009522890245 
0.010028191956 0.010447473954 0.01076290097 0.010959989723 0.011028622194 0.01096382951 0.01076625031 0.010442192602 0.010003268381 
0.009465620757 0.0088488153854 0.0081745104811 0.0074650420675 0.0067420566029 0.0060252928227 0.0053315682852 0.0076692379278 0.0068218061787 
0.0061131621226 0.005523566093 0.0050323226694 0.0046196663184 0.0042678823049 0.0039619070711 0.0036895879159 0.0034417284903 0.0032120039369 
0.0029967956254 0.0027949725365 0.0026076350349 0.0024378317486 0.0022902559712 0.0021709232148 0.0020868277952 0.0020455753629 0.0020549898769 
0.0021226961168 0.0022556818151 0.0024598463886 0.0027395463221 0.0030971525236 0.0035326489583 0.0040477181882 0.0046288098981 0.0052664866788 
0.0059477098374 0.0066560380006 0.0073719705696 0.0080735086687 0.0087369512516 0.0093379164281 0.0098525526113 0.010258876695 0.010538148763 
0.010676168999 0.010664368024 0.010500562433 0.010189267077 0.0097414962154 0.0091740433876 0.0085082962433 0.0077687043445 0.0069810607046 
0.0061707703273 0.0053612582387 0.0045726234545 0.0070806014946 0.0061924118407 0.0054506636899 0.004833586229 0.0043183094655 0.0038830192095 
0.0035082346026 0.0031774847013 0.002877588568 0.0025986848593 0.0023341088167 0.0020801786197 0.0018359298611 0.0016028228997 0.0013844371302 
0.001186156486 0.0010148430222 0.00087849177226 0.00078586033156 0.00074606895396 0.00076816975415 0.00086068657531 0.0010311297496 0.001285491987 
0.001627731195 0.0020592371127 0.0025843143916 0.0031906188642 0.0038691688859 0.0046071137932 0.0053876229959 0.006190073564 0.0069905249053 
0.0077624841813 0.0084779595183 0.0091087764799 0.0096281024149 0.010012087581 0.010241496826 0.0103031779 0.010191199943 0.0099075057261 
0.0094619587105 0.0088717300358 0.0081600537051 0.0073544652749 0.0064847109242 0.0055805517884 0.0046696830753 0.0037759427394 0.0063239856266 
0.0054006677712 0.0046300990766 0.0039884854069 0.0034508375437 0.0029933910948 0.0025950244264 0.0022379918606 0.0019082055702 0.0015952349246 
0.001292138647 0.00099520557501 0.00070365257426 0.000419308395 0.00014629615946 -0.00010928516036 -0.00033968728008 -0.00053585661397 -0.00068780431504 
-0.00078500884229 -0.00081685513328 -0.00077311154898 -0.00064444257626 -0.00042295224365 -0.00010275416525 0.00031941138023 0.00084850310483 0.0014779561312 
0.0021976063849 0.002995326656 0.0038542933556 0.0047530281423 0.0056657669633 0.0065631638908 0.0074133462499 0.008183316358 0.0088406595035 
0.0093554728813 0.0097023815105 0.0098624623028 0.0098248664508 0.0095879244531 0.0091595468726 0.0085568014431 0.0078046483786 0.0069339345762 
0.0059788585164 0.0049741931704 0.0039525735137 0.0029421147331 0.005391291576 0.0044387995416 0.0036437929873 0.0029805569741 0.0024221391621 
0.0019429917179 0.0015205038239 0.0011357753923 0.00077389433568 0.00042390752806 7.8616489237e-05 -0.00026571551509 -0.00060969067132 -0.00095110850141 
-0.0012852915843 -0.0016054067623 -0.001902790082 -0.0021672859512 -0.0023876109287 -0.0025517516526 -0.0026474045611 -0.0026624619996 -0.0025855447201 
-0.0024065728009 -0.0021173491478 -0.0017120745409 -0.0011874961566 -0.000539391986 0.00021913557227 0.0010774703271 0.0020193287287 0.0030227748772 
0.0040604719198 0.0051002832602 0.0061062849207 0.0070402159988 0.0078633515199 0.0085387272871 0.0090335823465 0.0093218187811 0.0093862227885 
0.0092201610021 0.0088284777486 0.008227383759 0.007443245323 0.0065103397155 0.0054678064517 0.0043561534927 0.0032137358536 0.0020735942637 
0.0042760497481 0.0033004692551 0.0024854269321 0.0018034958354 0.0012259703966 0.00072569476358 0.00027869858083 -0.00013498751302 -0.00053105113288 
-0.00092094484682 -0.0013121164813 -0.0017083276657 -0.0021100018621 -0.002514570794 -0.0029168079376 -0.0033091502666 -0.0036820165116 -0.0040241337356 
-0.0043228856596 -0.0045646964047 -0.0047354618474 -0.0048210378275 -0.0048077901268 -0.0046832048138 -0.0044365480969 -0.0040595518039 -0.0035471002781 
-0.002888953002 -0.0020969483546 -0.001179977171 -0.00015326548031 0.00096130540912 0.0021352293295 0.0033338017319 0.0045170232364 0.0056410409668 
0.006660145595 0.0075292799492 0.0082069356299 0.0086582239411 0.0088578201152 0.0087924154393 0.0084622945541 0.007881706706 0.0070778304637 
0.0060883306743 0.0049577377309 0.0037330850182 0.002459359645 0.0011753149982 0.0029734600435 0.0019809551788 0.0011503486512 0.0004527542818 
-0.00014207774519 -0.00066275290372 -0.0011344893679 -0.0015782512637 -0.0020104551172 -0.0024430272073 -0.0028836555201 -0.0033361318993 -0.0038007200358 
-0.0042745148598 -0.0047517798151 -0.0052242622352 -0.0056814958051 -0.0061111045217 -0.0064991255917 -0.0068303694784 -0.0070888339724 -0.0072581865545 
-0.0073223260474 -0.0072660313381 -0.0070757049576 -0.0067402354039 -0.0062520849683 -0.0055946240658 -0.0047777039913 -0.0038073249943 -0.0026968830667 
-0.00146751504 -0.00014830339937 0.0012239042925 0.0026052078686 0.0039460061496 0.0051930506435 0.0062921978212 0.0071917631958 0.0078462643386 
0.0082202144815 0.0082915176956 0.0080539541174 0.0075182652128 0.0067114806001 0.0056743697786 0.0044572163859 0.0031144231552 0.0016986680606 
0.00025537106245 0.0014805901943 0.00047740095922 -0.00036421475019 -0.0010743454702 -0.0016845753005 -0.002224792998 -0.0027213386136 -0.0031960816842 
-0.0036661122653 -0.0041438069453 -0.0046371002184 -0.0051498471337 -0.0056822065959 -0.006231007007 -0.0067900787036 -0.0073505533271 -0.0079011409078 
-0.0084284022648 -0.0089170380158 -0.0093502163758 -0.0097099607841 -0.0099776162995 -0.010134411058 -0.010162126097 -0.01004388404 -0.0097650638229 
-0.0093143283951 -0.0086735971322 -0.0078442102635 -0.0068293783473 -0.0056399997974 -0.0042956409474 -0.002825160865 -0.001266885705 0.00033181029866 
0.0019156620677 0.0034235255747 0.0047912979065 0.005955696589 0.0068587079507 0.0074523455679 0.0077031901694 0.0075960545514 0.0071360844274 
0.006348717604 0.0052772003612 0.0039777701862 0.002513063901 0.00094466125816 -0.00067420436397 -0.00020341697498 -0.001211073896 -0.0020591682988 
-0.0027787097283 -0.0034023685217 -0.0039611135575 -0.004482255223 -0.0049884711877 -0.0054974806623 -0.0060221139902 -0.0065705956789 -0.0071469182805 
-0.0077512310503 -0.0083802018065 -0.0090273350969 -0.0096832472533 -0.010335910917 -0.010970889241 -0.011571583962 -0.012119522715 -0.012594710364 
-0.012976067805 -0.013241979487 -0.013370967543 -0.013342505055 -0.013137973439 -0.012741769394 -0.0121357211 -0.01130940771 -0.010262898853 
-0.0090034908657 -0.0075481036637 -0.0059243312838 -0.004171042176 -0.0023383570928 -0.00048681015025 0.0013144901738 0.0029908302693 0.0044660161251 
0.0056675164348 0.0065322728709 0.0070125859086 0.0070812681954 0.0067351382455 0.0059959851449 0.0049084250797 0.0035345823617 0.001946155454 
0.00021498019374 -0.0015965345057 -0.0020772827274 -0.0030834355374 -0.0039336733499 -0.0046595821038 -0.0052946136031 -0.0058705806406 -0.0064156072707 
-0.0069531014265 -0.007501403055 -0.0080738432662 -0.0086790239456 -0.0093211890266 -0.01000060684 -0.010713918877 -0.011454436515 -0.012212386133 
-0.012975116095 -0.013727287345 -0.014451073867 -0.015126401127 -0.015731250953 -0.016242060886 -0.016634244468 -0.01688285542 -0.016963410394 
-0.016852861904 -0.016530635216 -0.015979329596 -0.015175117199 -0.014113742615 -0.012797674302 -0.01123994091 -0.0094656122286 -0.0075128859064 
-0.0054335681353 -0.0032926944065 -0.001167027494 0.00085779436463 0.0026915885691 0.004245393362 0.0054383656939 0.0062051909666 0.0065030548158 
0.0063169808702 0.0056622937723 0.0045832300365 0.0031473231966 0.001436032904 -0.00046708026874 -0.0024888388976 -0.0041376805917 -0.0051368661364 
-0.005985254126 -0.0067145888299 -0.0073587570547 -0.0079501720738 -0.0085176363065 -0.0090852493292 -0.0096720098755 -0.010291842872 -0.010953856596 
-0.011662696525 -0.012418910625 -0.013219277503 -0.01405707634 -0.014922297806 -0.015801809274 -0.016679496817 -0.017536411872 -0.018350953174 
-0.01909911604 -0.019754841472 -0.020290497273 -0.020677522038 -0.020887261016 -0.020892023428 -0.020666413483 -0.020189132263 -0.019429518344 
-0.018374115474 -0.01701933766 -0.015373002731 -0.013456234189 -0.011305091256 -0.0089716608335 -0.0065242934316 -0.0040466324797 -0.001635096039 
0.00060545341455 0.0025679434492 0.004151035019 0.0052681800392 0.0058567356314 0.0058856581506 0.0053600867378 0.0043212957388 0.0028411555807 
0.0010113269022 -0.0010713790551 -0.0033211879669 -0.0063793881899 -0.007366900942 -0.0082099053112 -0.0089398284352 -0.009590625571 -0.010195078018 
-0.010782564363 -0.011377882428 -0.012000777448 -0.012665910795 -0.01338307346 -0.014157506754 -0.014990239472 -0.015878387837 -0.016815393378 
-0.017791195688 -0.018792352391 -0.019802128969 -0.020800587425 -0.021764706554 -0.022668568765 -0.023483649735 -0.024179247809 -0.024723090484 
-0.025082156008 -0.025223753074 -0.025116928887 -0.024734401797 -0.024045166731 -0.023020223941 -0.021649029674 -0.019932900729 -0.017887501118 
-0.015545075459 -0.012956259361 -0.010191092735 -0.0073387971444 -0.0045058524733 -0.0018119468007 0.00061647898661 0.0026550719199 0.0041923040294 