# vtk DataFile Version 4.1
vtk output
ASCII
DATASET STRUCTURED_GRID
DIMENSIONS 51 51 1
POINTS 2601 float
0 0 0 0.02 0 0 0.04 0 0 
0.06 0 0 0.08 0 0 0.1 0 0 
0.12 0 0 0.14 0 0 0.16 0 0 
0.18 0 0 0.2 0 0 0.22 0 0 
0.24 0 0 0.26 0 0 0.28 0 0 
0.3 0 0 0.32 0 0 0.34 0 0 
0.36 0 0 0.38 0 0 0.4 0 0 
0.42 0 0 0.44 0 0 0.46 0 0 
0.48 0 0 0.5 0 0 0.52 0 0 
0.54 0 0 0.56 0 0 0.58 0 0 
0.6 0 0 0.62 0 0 0.64 0 0 
0.66 0 0 0.68 0 0 0.7 0 0 
0.72 0 0 0.74 0 0 0.76 0 0 
0.78 0 0 0.8 0 0 0.82 0 0 
0.84 0 0 0.86 0 0 0.88 0 0 
0.9 0 0 0.92 0 0 0.94 0 0 
0.96 0 0 0.98 0 0 1 0 0 
0 0.02 0 0.02 0.02 0 0.04 0.02 0 
0.06 0.02 0 0.08 0.02 0 0.1 0.02 0 
0.12 0.02 0 0.14 0.02 0 0.16 0.02 0 
0.18 0.02 0 0.2 0.02 0 0.22 0.02 0 
0.24 0.02 0 0.26 0.02 0 0.28 0.02 0 
0.3 0.02 0 0.32 0.02 0 0.34 0.02 0 
0.36 0.02 0 0.38 0.02 0 0.4 0.02 0 
0.42 0.02 0 0.44 0.02 0 0.46 0.02 0 
0.48 0.02 0 0.5 0.02 0 0.52 0.02 0 
0.54 0.02 0 0.56 0.02 0 0.58 0.02 0 
0.6 0.02 0 0.62 0.02 0 0.64 0.02 0 
0.66 0.02 0 0.68 0.02 0 0.7 0.02 0 
0.72 0.02 0 0.74 0.02 0 0.76 0.02 0 
0.78 0.02 0 0.8 0.02 0 0.82 0.02 0 
0.84 0.02 0 0.86 0.02 0 0.88 0.02 0 
0.9 0.02 0 0.92 0.02 0 0.94 0.02 0 
0.96 0.02 0 0.98 0.02 0 1 0.02 0 
0 0.04 0 0.02 0.04 0 0.04 0.04 0 
0.06 0.04 0 0.08 0.04 0 0.1 0.04 0 
0.12 0.04 0 0.14 0.04 0 0.16 0.04 0 
0.18 0.04 0 0.2 0.04 0 0.22 0.04 0 
0.24 0.04 0 0.26 0.04 0 0.28 0.04 0 
0.3 0.04 0 0.32 0.04 0 0.34 0.04 0 
0.36 0.04 0 0.38 0.04 0 0.4 0.04 0 
0.42 0.04 0 0.44 0.04 0 0.46 0.04 0 
0.48 0.04 0 0.5 0.04 0 0.52 0.04 0 
0.54 0.04 0 0.56 0.04 0 0.58 0.04 0 
0.6 0.04 0 0.62 0.04 0 0.64 0.04 0 
0.66 0.04 0 0.68 0.04 0 0.7 0.04 0 
0.72 0.04 0 0.74 0.04 0 0.76 0.04 0 
0.78 0.04 0 0.8 0.04 0 0.82 0.04 0 
0.84 0.04 0 0.86 0.04 0 0.88 0.04 0 
0.9 0.04 0 0.92 0.04 0 0.94 0.04 0 
0.96 0.04 0 0.98 0.04 0 1 0.04 0 
0 0.06 0 0.02 0.06 0 0.04 0.06 0 
0.06 0.06 0 0.08 0.06 0 0.1 0.06 0 
0.12 0.06 0 0.14 0.06 0 0.16 0.06 0 
0.18 0.06 0 0.2 0.06 0 0.22 0.06 0 
0.24 0.06 0 0.26 0.06 0 0.28 0.06 0 
0.3 0.06 0 0.32 0.06 0 0.34 0.06 0 
0.36 0.06 0 0.38 0.06 0 0.4 0.06 0 
0.42 0.06 0 0.44 0.06 0 0.46 0.06 0 
0.48 0.06 0 0.5 0.06 0 0.52 0.06 0 
0.54 0.06 0 0.56 0.06 0 0.58 0.06 0 
0.6 0.06 0 0.62 0.06 0 0.64 0.06 0 
0.66 0.06 0 0.68 0.06 0 0.7 0.06 0 
0.72 0.06 0 0.74 0.06 0 0.76 0.06 0 
0.78 0.06 0 0.8 0.06 0 0.82 0.06 0 
0.84 0.06 0 0.86 0.06 0 0.88 0.06 0 
0.9 0.06 0 0.92 0.06 0 0.94 0.06 0 
0.96 0.06 0 0.98 0.06 0 1 0.06 0 
0 0.08 0 0.02 0.08 0 0.04 0.08 0 
0.06 0.08 0 0.08 0.08 0 0.1 0.08 0 
0.12 0.08 0 0.14 0.08 0 0.16 0.08 0 
0.18 0.08 0 0.2 0.08 0 0.22 0.08 0 
0.24 0.08 0 0.26 0.08 0 0.28 0.08 0 
0.3 0.08 0 0.32 0.08 0 0.34 0.08 0 
0.36 0.08 0 0.38 0.08 0 0.4 0.08 0 
0.42 0.08 0 0.44 0.08 0 0.46 0.08 0 
0.48 0.08 0 0.5 0.08 0 0.52 0.08 0 
0.54 0.08 0 0.56 0.08 0 0.58 0.08 0 
0.6 0.08 0 0.62 0.08 0 0.64 0.08 0 
0.66 0.08 0 0.68 0.08 0 0.7 0.08 0 
0.72 0.08 0 0.74 0.08 0 0.76 0.08 0 
0.78 0.08 0 0.8 0.08 0 0.82 0.08 0 
0.84 0.08 0 0.86 0.08 0 0.88 0.08 0 
0.9 0.08 0 0.92 0.08 0 0.94 0.08 0 
0.96 0.08 0 0.98 0.08 0 1 0.08 0 
0 0.1 0 0.02 0.1 0 0.04 0.1 0 
0.06 0.1 0 0.08 0.1 0 0.1 0.1 0 
0.12 0.1 0 0.14 0.1 0 0.16 0.1 0 
0.18 0.1 0 0.2 0.1 0 0.22 0.1 0 
0.24 0.1 0 0.26 0.1 0 0.28 0.1 0 
0.3 0.1 0 0.32 0.1 0 0.34 0.1 0 
0.36 0.1 0 0.38 0.1 0 0.4 0.1 0 
0.42 0.1 0 0.44 0.1 0 0.46 0.1 0 
0.48 0.1 0 0.5 0.1 0 0.52 0.1 0 
0.54 0.1 0 0.56 0.1 0 0.58 0.1 0 
0.6 0.1 0 0.62 0.1 0 0.64 0.1 0 
0.66 0.1 0 0.68 0.1 0 0.7 0.1 0 
0.72 0.1 0 0.74 0.1 0 0.76 0.1 0 
0.78 0.1 0 0.8 0.1 0 0.82 0.1 0 
0.84 0.1 0 0.86 0.1 0 0.88 0.1 0 
0.9 0.1 0 0.92 0.1 0 0.94 0.1 0 
0.96 0.1 0 0.98 0.1 0 1 0.1 0 
0 0.12 0 0.02 0.12 0 0.04 0.12 0 
0.06 0.12 0 0.08 0.12 0 0.1 0.12 0 
0.12 0.12 0 0.14 0.12 0 0.16 0.12 0 
0.18 0.12 0 0.2 0.12 0 0.22 0.12 0 
0.24 0.12 0 0.26 0.12 0 0.28 0.12 0 
0.3 0.12 0 0.32 0.12 0 0.34 0.12 0 
0.36 0.12 0 0.38 0.12 0 0.4 0.12 0 
0.42 0.12 0 0.44 0.12 0 0.46 0.12 0 
0.48 0.12 0 0.5 0.12 0 0.52 0.12 0 
0.54 0.12 0 0.56 0.12 0 0.58 0.12 0 
0.6 0.12 0 0.62 0.12 0 0.64 0.12 0 
0.66 0.12 0 0.68 0.12 0 0.7 0.12 0 
0.72 0.12 0 0.74 0.12 0 0.76 0.12 0 
0.78 0.12 0 0.8 0.12 0 0.82 0.12 0 
0.84 0.12 0 0.86 0.12 0 0.88 0.12 0 
0.9 0.12 0 0.92 0.12 0 0.94 0.12 0 
0.96 0.12 0 0.98 0.12 0 1 0.12 0 
0 0.14 0 0.02 0.14 0 0.04 0.14 0 
0.06 0.14 0 0.08 0.14 0 0.1 0.14 0 
0.12 0.14 0 0.14 0.14 0 0.16 0.14 0 
0.18 0.14 0 0.2 0.14 0 0.22 0.14 0 
0.24 0.14 0 0.26 0.14 0 0.28 0.14 0 
0.3 0.14 0 0.32 0.14 0 0.34 0.14 0 
0.36 0.14 0 0.38 0.14 0 0.4 0.14 0 
0.42 0.14 0 0.44 0.14 0 0.46 0.14 0 
0.48 0.14 0 0.5 0.14 0 0.52 0.14 0 
0.54 0.14 0 0.56 0.14 0 0.58 0.14 0 
0.6 0.14 0 0.62 0.14 0 0.64 0.14 0 
0.66 0.14 0 0.68 0.14 0 0.7 0.14 0 
0.72 0.14 0 0.74 0.14 0 0.76 0.14 0 
0.78 0.14 0 0.8 0.14 0 0.82 0.14 0 
0.84 0.14 0 0.86 0.14 0 0.88 0.14 0 
0.9 0.14 0 0.92 0.14 0 0.94 0.14 0 
0.96 0.14 0 0.98 0.14 0 1 0.14 0 
0 0.16 0 0.02 0.16 0 0.04 0.16 0 
0.06 0.16 0 0.08 0.16 0 0.1 0.16 0 
0.12 0.16 0 0.14 0.16 0 0.16 0.16 0 
0.18 0.16 0 0.2 0.16 0 0.22 0.16 0 
0.24 0.16 0 0.26 0.16 0 0.28 0.16 0 
0.3 0.16 0 0.32 0.16 0 0.34 0.16 0 
0.36 0.16 0 0.38 0.16 0 0.4 0.16 0 
0.42 0.16 0 0.44 0.16 0 0.46 0.16 0 
0.48 0.16 0 0.5 0.16 0 0.52 0.16 0 
0.54 0.16 0 0.56 0.16 0 0.58 0.16 0 
0.6 0.16 0 0.62 0.16 0 0.64 0.16 0 
0.66 0.16 0 0.68 0.16 0 0.7 0.16 0 
0.72 0.16 0 0.74 0.16 0 0.76 0.16 0 
0.78 0.16 0 0.8 0.16 0 0.82 0.16 0 
0.84 0.16 0 0.86 0.16 0 0.88 0.16 0 
0.9 0.16 0 0.92 0.16 0 0.94 0.16 0 
0.96 0.16 0 0.98 0.16 0 1 0.16 0 
0 0.18 0 0.02 0.18 0 0.04 0.18 0 
0.06 0.18 0 0.08 0.18 0 0.1 0.18 0 
0.12 0.18 0 0.14 0.18 0 0.16 0.18 0 
0.18 0.18 0 0.2 0.18 0 0.22 0.18 0 
0.24 0.18 0 0.26 0.18 0 0.28 0.18 0 
0.3 0.18 0 0.32 0.18 0 0.34 0.18 0 
0.36 0.18 0 0.38 0.18 0 0.4 0.18 0 
0.42 0.18 0 0.44 0.18 0 0.46 0.18 0 
0.48 0.18 0 0.5 0.18 0 0.52 0.18 0 
0.54 0.18 0 0.56 0.18 0 0.58 0.18 0 
0.6 0.18 0 0.62 0.18 0 0.64 0.18 0 
0.66 0.18 0 0.68 0.18 0 0.7 0.18 0 
0.72 0.18 0 0.74 0.18 0 0.76 0.18 0 
0.78 0.18 0 0.8 0.18 0 0.82 0.18 0 
0.84 0.18 0 0.86 0.18 0 0.88 0.18 0 
0.9 0.18 0 0.92 0.18 0 0.94 0.18 0 
0.96 0.18 0 0.98 0.18 0 1 0.18 0 
0 0.2 0 0.02 0.2 0 0.04 0.2 0 
0.06 0.2 0 0.08 0.2 0 0.1 0.2 0 
0.12 0.2 0 0.14 0.2 0 0.16 0.2 0 
0.18 0.2 0 0.2 0.2 0 0.22 0.2 0 
0.24 0.2 0 0.26 0.2 0 0.28 0.2 0 
0.3 0.2 0 0.32 0.2 0 0.34 0.2 0 
0.36 0.2 0 0.38 0.2 0 0.4 0.2 0 
0.42 0.2 0 0.44 0.2 0 0.46 0.2 0 
0.48 0.2 0 0.5 0.2 0 0.52 0.2 0 
0.54 0.2 0 0.56 0.2 0 0.58 0.2 0 
0.6 0.2 0 0.62 0.2 0 0.64 0.2 0 
0.66 0.2 0 0.68 0.2 0 0.7 0.2 0 
0.72 0.2 0 0.74 0.2 0 0.76 0.2 0 
0.78 0.2 0 0.8 0.2 0 0.82 0.2 0 
0.84 0.2 0 0.86 0.2 0 0.88 0.2 0 
0.9 0.2 0 0.92 0.2 0 0.94 0.2 0 
0.96 0.2 0 0.98 0.2 0 1 0.2 0 
0 0.22 0 0.02 0.22 0 0.04 0.22 0 
0.06 0.22 0 0.08 0.22 0 0.1 0.22 0 
0.12 0.22 0 0.14 0.22 0 0.16 0.22 0 
0.18 0.22 0 0.2 0.22 0 0.22 0.22 0 
0.24 0.22 0 0.26 0.22 0 0.28 0.22 0 
0.3 0.22 0 0.32 0.22 0 0.34 0.22 0 
0.36 0.22 0 0.38 0.22 0 0.4 0.22 0 
0.42 0.22 0 0.44 0.22 0 0.46 0.22 0 
0.48 0.22 0 0.5 0.22 0 0.52 0.22 0 
0.54 0.22 0 0.56 0.22 0 0.58 0.22 0 
0.6 0.22 0 0.62 0.22 0 0.64 0.22 0 
0.66 0.22 0 0.68 0.22 0 0.7 0.22 0 
0.72 0.22 0 0.74 0.22 0 0.76 0.22 0 
0.78 0.22 0 0.8 0.22 0 0.82 0.22 0 
0.84 0.22 0 0.86 0.22 0 0.88 0.22 0 
0.9 0.22 0 0.92 0.22 0 0.94 0.22 0 
0.96 0.22 0 0.98 0.22 0 1 0.22 0 
0 0.24 0 0.02 0.24 0 0.04 0.24 0 
0.06 0.24 0 0.08 0.24 0 0.1 0.24 0 
0.12 0.24 0 0.14 0.24 0 0.16 0.24 0 
0.18 0.24 0 0.2 0.24 0 0.22 0.24 0 
0.24 0.24 0 0.26 0.24 0 0.28 0.24 0 
0.3 0.24 0 0.32 0.24 0 0.34 0.24 0 
0.36 0.24 0 0.38 0.24 0 0.4 0.24 0 
0.42 0.24 0 0.44 0.24 0 0.46 0.24 0 
0.48 0.24 0 0.5 0.24 0 0.52 0.24 0 
0.54 0.24 0 0.56 0.24 0 0.58 0.24 0 
0.6 0.24 0 0.62 0.24 0 0.64 0.24 0 
0.66 0.24 0 0.68 0.24 0 0.7 0.24 0 
0.72 0.24 0 0.74 0.24 0 0.76 0.24 0 
0.78 0.24 0 0.8 0.24 0 0.82 0.24 0 
0.84 0.24 0 0.86 0.24 0 0.88 0.24 0 
0.9 0.24 0 0.92 0.24 0 0.94 0.24 0 
0.96 0.24 0 0.98 0.24 0 1 0.24 0 
0 0.26 0 0.02 0.26 0 0.04 0.26 0 
0.06 0.26 0 0.08 0.26 0 0.1 0.26 0 
0.12 0.26 0 0.14 0.26 0 0.16 0.26 0 
0.18 0.26 0 0.2 0.26 0 0.22 0.26 0 
0.24 0.26 0 0.26 0.26 0 0.28 0.26 0 
0.3 0.26 0 0.32 0.26 0 0.34 0.26 0 
0.36 0.26 0 0.38 0.26 0 0.4 0.26 0 
0.42 0.26 0 0.44 0.26 0 0.46 0.26 0 
0.48 0.26 0 0.5 0.26 0 0.52 0.26 0 
0.54 0.26 0 0.56 0.26 0 0.58 0.26 0 
0.6 0.26 0 0.62 0.26 0 0.64 0.26 0 
0.66 0.26 0 0.68 0.26 0 0.7 0.26 0 
0.72 0.26 0 0.74 0.26 0 0.76 0.26 0 
0.78 0.26 0 0.8 0.26 0 0.82 0.26 0 
0.84 0.26 0 0.86 0.26 0 0.88 0.26 0 
0.9 0.26 0 0.92 0.26 0 0.94 0.26 0 
0.96 0.26 0 0.98 0.26 0 1 0.26 0 
0 0.28 0 0.02 0.28 0 0.04 0.28 0 
0.06 0.28 0 0.08 0.28 0 0.1 0.28 0 
0.12 0.28 0 0.14 0.28 0 0.16 0.28 0 
0.18 0.28 0 0.2 0.28 0 0.22 0.28 0 
0.24 0.28 0 0.26 0.28 0 0.28 0.28 0 
0.3 0.28 0 0.32 0.28 0 0.34 0.28 0 
0.36 0.28 0 0.38 0.28 0 0.4 0.28 0 
0.42 0.28 0 0.44 0.28 0 0.46 0.28 0 
0.48 0.28 0 0.5 0.28 0 0.52 0.28 0 
0.54 0.28 0 0.56 0.28 0 0.58 0.28 0 
0.6 0.28 0 0.62 0.28 0 0.64 0.28 0 
0.66 0.28 0 0.68 0.28 0 0.7 0.28 0 
0.72 0.28 0 0.74 0.28 0 0.76 0.28 0 
0.78 0.28 0 0.8 0.28 0 0.82 0.28 0 
0.84 0.28 0 0.86 0.28 0 0.88 0.28 0 
0.9 0.28 0 0.92 0.28 0 0.94 0.28 0 
0.96 0.28 0 0.98 0.28 0 1 0.28 0 
0 0.3 0 0.02 0.3 0 0.04 0.3 0 
0.06 0.3 0 0.08 0.3 0 0.1 0.3 0 
0.12 0.3 0 0.14 0.3 0 0.16 0.3 0 
0.18 0.3 0 0.2 0.3 0 0.22 0.3 0 
0.24 0.3 0 0.26 0.3 0 0.28 0.3 0 
0.3 0.3 0 0.32 0.3 0 0.34 0.3 0 
0.36 0.3 0 0.38 0.3 0 0.4 0.3 0 
0.42 0.3 0 0.44 0.3 0 0.46 0.3 0 
0.48 0.3 0 0.5 0.3 0 0.52 0.3 0 
0.54 0.3 0 0.56 0.3 0 0.58 0.3 0 
0.6 0.3 0 0.62 0.3 0 0.64 0.3 0 
0.66 0.3 0 0.68 0.3 0 0.7 0.3 0 
0.72 0.3 0 0.74 0.3 0 0.76 0.3 0 
0.78 0.3 0 0.8 0.3 0 0.82 0.3 0 
0.84 0.3 0 0.86 0.3 0 0.88 0.3 0 
0.9 0.3 0 0.92 0.3 0 0.94 0.3 0 
0.96 0.3 0 0.98 0.3 0 1 0.3 0 
0 0.32 0 0.02 0.32 0 0.04 0.32 0 
0.06 0.32 0 0.08 0.32 0 0.1 0.32 0 
0.12 0.32 0 0.14 0.32 0 0.16 0.32 0 
0.18 0.32 0 0.2 0.32 0 0.22 0.32 0 
0.24 0.32 0 0.26 0.32 0 0.28 0.32 0 
0.3 0.32 0 0.32 0.32 0 0.34 0.32 0 
0.36 0.32 0 0.38 0.32 0 0.4 0.32 0 
0.42 0.32 0 0.44 0.32 0 0.46 0.32 0 
0.48 0.32 0 0.5 0.32 0 0.52 0.32 0 
0.54 0.32 0 0.56 0.32 0 0.58 0.32 0 
[...]
CELL_DATA 2500
FIELD FieldData 1
pressure 1 2500 double
0.0061827022257 0.0061145050105 0.0059243303158 0.0056508636822 0.0053337859318 0.005005655414 0.0046911761115 0.0044083575211 0.0041699216807 
0.0039845399908 0.0038578521972 0.0037932893171 0.0037927326242 0.0038570340323 0.00398640643 0.0041806772616 0.0044393964676 0.0047618026316 
0.0051466714647 0.0055920877487 0.0060951886876 0.0066519216627 0.0072568456395 0.0079029886021 0.008581757911 0.0092828873588 0.0099940410889 
0.010701985198 0.011392781048 0.012051899085 0.01266464048 0.013216659849 0.013694555625 0.014086494658 0.014382835335 0.014576711695 
0.014664541542 0.014646425434 0.014526411199 0.014312610009 0.014017164552 0.013656085345 0.013248984832 0.012818744928 0.01239115035 
0.01199438912 0.011658289356 0.011412392811 0.011280787668 0.011268380242 0.0062496861063 0.0061836926513 0.00602216451 0.0057944469736 
0.0055298296651 0.0052542116365 0.0049885952047 0.004748955022 0.0045468274619 0.0043901723639 0.0042842544973 0.0042324233078 0.0042367454064 
0.0042984756884 0.0044183632707 0.0045967983078 0.0048338203214 0.0051290226481 0.0054813941157 0.0058891361048 0.0063494839425 0.0068585498934 
0.0074111957548 0.0080009387728 0.0086198962577 0.0092587845978 0.0099060250321 0.010549650482 0.011177102712 0.011775307944 0.012331089237 
0.01283165083 0.01326511493 0.01362108356 0.013891193927 0.014069633471 0.014153581275 0.014143546051 0.014043577649 0.013861338884 
0.013608036007 0.013298217395 0.012949457885 0.012581945085 0.012217965039 0.011881232896 0.011595873403 0.011384848054 0.011267322809 
0.011255962996 0.0064455420033 0.0063483611507 0.0061821868447 0.005969465661 0.0057323544538 0.0054906022055 0.0052603594372 0.0050539894242 
0.0048805281206 0.0047463960594 0.0046561070136 0.0046128591696 0.0046189739796 0.0046761794841 0.0047857514163 0.0049485403808 0.005164922576 
0.0054347098266 0.0057570435556 0.0061302844901 0.0065519010991 0.007018357305 0.0075250038447 0.008065984578 0.0086341763402 0.0092211894875 
0.0098159628978 0.010407554966 0.010984441307 0.011534601839 0.012045922126 0.012506654707 0.012905924081 0.013234251586 0.013484071047 
0.013650202982 0.013730255119 0.013724919873 0.013638145638 0.013477167826 0.013252395996 0.012977163559 0.01266735387 0.01234091723 
0.01201728415 0.01171665992 0.011459158186 0.011263809126 0.011147666458 0.01112616608 0.006730733161 0.0065777518575 0.0063848318513 
0.0061673661922 0.0059405264247 0.0057177098863 0.005509867058 0.0053255380957 0.0051712437041 0.0050519512312 0.0049714830652 0.0049328307241 
0.0049383710346 0.0049899896166 0.0050891275816 0.0052367767085 0.0054334470929 0.0056791197833 0.0059731841269 0.0063143540985 0.0067005603151 
0.0071288229491 0.007595120403 0.0080942753798 0.0086198826204 0.009164302925 0.0097168539671 0.010267362897 0.010805032927 0.011318552999 
0.011796485139 0.012227710375 0.012601917354 0.012910110759 0.013145110444 0.013302008503 0.013378550895 0.013375412641 0.013296341825 
0.013148156696 0.012940590892 0.012685993197 0.012398897721 0.012095486065 0.011792964337 0.01150887755 0.011260394184 0.011063651743 
0.010933374342 0.010883209243 0.0070647486423 0.0068444488016 0.0066123101267 0.006376816334 0.0061465165451 0.0059291247827 0.0057311846389 
0.0055581027543 0.005414301253 0.0053033787626 0.0052282606375 0.0051913366744 0.0051945732525 0.0052395871754 0.0053276815993 0.0054598525648 
0.0056367709218 0.0058587359074 0.0061255936282 0.0064366186034 0.0067903653215 0.0071845060942 0.0076156765207 0.0080793504088 0.0085697637121 
0.0090799032485 0.0095993983993 0.010118608062 0.010627220929 0.011114350748 0.01156891109 0.011980053981 0.012337655977 0.01263282759 
0.012858415282 0.013009461204 0.013083584702 0.013081251787 0.013005905235 0.012863937442 0.012664500294 0.012419159894 0.012141416556 
0.011846120858 0.011548824041 0.011265106601 0.011009937526 0.010797133521 0.010639004805 0.010546207986 0.0074148532342 0.0071235496032 
0.0068447839589 0.0065812264404 0.0063361910909 0.0061130866309 0.0059151144502 0.0057451153216 0.0056054941208 0.0054982219873 0.0054249137206 
0.0053869449346 0.005385561227 0.0054219493696 0.0054972635198 0.0056126089395 0.0057689838766 0.0059671784725 0.0062076338091 0.0064902708397 
0.0068143045614 0.007178061426 0.0075788165695 0.0080126649711 0.0084744388823 0.0089576816185 0.0094523324427 0.0099490628022 0.010437853488 
0.010908003726 0.01134849911 0.01174845223 0.012097598213 0.01238681912 0.012608664246 0.012757828853 0.012831552004 0.012829896215 
0.012755878133 0.012615429681 0.012417183077 0.012172089146 0.011892894132 0.011593514297 0.011288357835 0.010991648645 0.010716805614 
0.010475919415 0.010279330462 0.010135191298 0.0077541714668 0.0073909094512 0.0070605629509 0.0067617586661 0.0064941460063 0.0062579155523 
0.0060534458053 0.005881061858 0.005740938663 0.0056331478171 0.0055577933789 0.0055151583551 0.0055058043236 0.0055306044291 0.0055907140311 
0.0056874882693 0.0058223537279 0.0059966425117 0.0062114007982 0.0064671854208 0.0067638615002 0.0071004115971 0.0074747644786 0.007883651887 
0.008322503613 0.0087853920708 0.0092626105317 0.0097449240654 0.010222444452 0.010684452515 0.011119765381 0.011517186156 0.011866017181 
0.012156609388 0.012380912995 0.012532989303 0.012609440497 0.012609715972 0.012536260035 0.01239447693 0.012192504936 0.011940809747 
0.011651626315 0.011338295432 0.011014553024 0.01069383359 0.010388641181 0.010110016006 0.0098670733789 0.009666500956 0.0080586811954 
0.0076234908954 0.0072390079314 0.0069012164424 0.0066069333199 0.0063534673039 0.0061383773711 0.005959362984 0.0058143138783 0.0057014677108 
0.0056195848205 0.0055680666363 0.0055469902199 0.0055570664625 0.0055995394142 0.0056760402895 0.0057884065914 0.0059384779995 0.0061278807838 
0.0063578096054 0.0066288124945 0.0069405826111 0.0072917617702 0.0076797650843 0.008100640057 0.0085489752872 0.0090154990036 0.0094908468398 
0.0099651329051 0.010427453921 0.010866257884 0.011269805296 0.011626704306 0.011926491975 0.012160225572 0.012321040791 0.012404629645 
0.012409591587 0.012337617312 0.012193476511 0.011984798297 0.011721653826 0.011415972853 0.011080845859 0.010729776785 0.010375954389 
0.010031598895 0.0097074110771 0.0094121013363 0.0091519083517 0.0083065398721 0.0078008952929 0.0073624044908 0.0069848458359 0.0066622845279 
0.0063891054056 0.0061600524801 0.0059703461576 0.0058158709625 0.005693366024 0.0056005514697 0.0055361644042 0.0054999154725 0.0054923882057 
0.0055148964198 0.0055693073805 0.005657838071 0.0057828337138 0.0059465358849 0.0061508442354 0.0063970740523 0.0066857128915 0.0070161842847 
0.0073866319389 0.0077937408083 0.0082326119312 0.008694540769 0.0091698201709 0.0096484803954 0.010119311883 0.010570232321 0.010988758011 
0.011362562416 0.011680094646 0.011931220775 0.012107841919 0.012204437492 0.012218481397 0.012150684088 0.012005025563 0.011788562946 
0.011511019496 0.01118418726 0.010821198662 0.010435738224 0.010041269649 0.0096503416871 0.0092740062863 0.0089213363818 0.0085989746463 
0.0084786760198 0.0079057369348 0.0074152437337 0.0069985996171 0.0066470420609 0.0063521276277 0.006106060217 0.005901964528 0.0057341043866 
0.0055980183096 0.0054905630047 0.0054098823635 0.0053553263082 0.0053273326269 0.0053272733587 0.0053572657178 0.0054199526591 0.0055182607243 
0.0056551407443 0.0058332950029 0.0060548945583 0.0063212934671 0.0066327516832 0.006988182007 0.0073849375024 0.0078186550019 0.0082814032166 
0.0087629466123 0.0092531938252 0.0097405506461 0.010212279198 0.010654975778 0.011055152665 0.011399897811 0.01167757468 0.011878513671 
0.011995639153 0.012024973466 0.011965963041 0.011821583438 0.011598199305 0.011305180578 0.010954304843 0.010559002656 0.010133522116 
0.0096920957752 0.0092481825917 0.0088138289289 0.0083991489414 0.0080118743124 0.0085586528371 0.0079224844731 0.0073825709496 0.00692783066 
0.0065468290731 0.0062286065057 0.0059631962171 0.0057419521161 0.0055577349448 0.0054049879216 0.0052797359233 0.0051795378963 0.0051034047578 
0.0050516791554 0.0050258702417 0.0050284438912 0.0050625763377 0.0051318801612 0.005240109022 0.005390846332 0.0055871838515 0.0058313991968 
0.006124644689 0.0064666617853 0.0068555361556 0.007287508093 0.0077557094061 0.008249230119 0.0087578667661 0.0092696041861 0.0097709580344 
0.010247453453 0.010684227731 0.011066732825 0.011381500484 0.011616919961 0.011763968274 0.011816827529 0.011773325179 0.011635143237 
0.011407761404 0.011100126153 0.010724069669 0.010293533995 0.0098236802931 0.0093299745001 0.0088273336353 0.0083293907389 0.0078478945356 
0.007392211897 0.0085315749463 0.0078362505151 0.007249457127 0.0067578012229 0.0063474553418 0.0060052167617 0.0057191498509 0.0054789449626 
0.0052760953066 0.0051039619587 0.0049577740473 0.0048345849442 0.0047331834581 0.0046539520321 0.0045986701227 0.0045702705355 0.0045725603478 
0.0046099154499 0.0046869546618 0.004808198545 0.0049777189189 0.0051987873981 0.0054735335593 0.0058026252696 0.0061849866142 0.0066175726641 
0.0070949568715 0.0076054488875 0.0081387916628 0.0086825587854 0.0092224679536 0.0097428521516 0.010227277136 0.010659284741 0.011023227328 
0.01130514354 0.011493612054 0.011580510646 0.011561605602 0.011436903636 0.011210716151 0.010891413587 0.010490882831 0.0100237375 
0.0095063624042 0.0089558917125 0.0083892192745 0.0078221173335 0.0072685001666 0.0067398221518 0.0083831853482 0.0076326538825 0.0070017234677 
0.0064749044581 0.0060361179434 0.0056699877069 0.0053626210188 0.005102037975 0.0048783840289 0.0046840129081 0.0045134876267 0.0043635166684 
0.0042328276018 0.004121980821 0.0040331325456 0.0039697598397 0.0039363577879 0.0039381141247 0.0039805643967 0.0040692308121 0.0042092491294 
0.0044049899611 0.0046596831241 0.0049750568719 0.0053510085415 0.0057853282797 0.0062745724506 0.0068061423414 0.0073698667335 0.0079529758235 
0.0085403875537 0.009115162008 0.0096591229637 0.010153635068 0.010580507893 0.010922979422 0.011166713623 0.01130073229 0.011318193806 
0.011216933844 0.010999697677 0.010674021367 0.010251757242 0.0097482823551 0.0091814691468 0.008570525814 0.0079348221454 0.0072928012292 
0.0066610412034 0.0060534846661 0.0080998800605 0.0072984165497 0.0066266755319 0.0060671022688 0.0056013310547 0.0052117720491 0.0048825660259 
0.004600110658 0.0043533148136 0.0041336817361 0.0039352782442 0.0037546194209 0.0035904871482 0.0034436986768 0.0033168398295 0.0032139728758 
0.0031403227953 0.0031019419577 0.0031053532368 0.0031571727517 0.0032637149124 0.0034305844286 0.0036622626413 0.0039616998244 0.004329930707 
0.0047657358048 0.0052681362697 0.0058237328119 0.0064226311399 0.0070518413184 0.0076955380756 0.0083354804337 0.0089516184202 0.009522890569 
0.010028192591 0.010447474626 0.010762901553 0.010959990178 0.011028622517 0.010963829724 0.010766250444 0.010442192686 0.01000326844 
0.0094656208092 0.0088488154382 0.0081745105434 0.0074650421417 0.0067420566862 0.0060252929131 0.0053315683761 0.0076692412089 0.0068217569602 
0.0061130733117 0.0055234772174 0.0050322729267 0.0046196806419 0.0042679637131 0.0039620354926 0.0036897276973 0.0034418430055 0.0032120697834 
0.0029968085318 0.0027949435567 0.0026075819433 0.0024377717027 0.0022902021818 0.0021708843605 0.0020868079369 0.0020455737381 0.0020550013358 
0.0021227129739 0.0022556967546 0.0024598549453 0.0027395477165 0.0030971487796 0.0035326431433 0.0040477128683 0.0046288064125 0.0052664852138 
0.005947709884 0.0066560388469 0.0073719716038 0.0080735095147 0.0087369517846 0.0093379166848 0.0098525526929 0.010258876704 0.010538148764 
0.010676169018 0.010664368069 0.010500562496 0.010189267149 0.0097414962907 0.0091740434615 0.0085082963159 0.0077687044211 0.0069810607854 
0.0061707704108 0.0053612583234 0.0045726235363 0.0070803522469 0.0061922615581 0.005450715611 0.0048338243444 0.0043186420586 0.0038833324875 
0.0035084362949 0.0031775292398 0.0028774834222 0.0025984803038 0.0023338755769 0.0020799817028 0.0018358089142 0.0016027858392 0.0013844666996 
0.0011862235521 0.0010149190659 0.00087855622058 0.00078590253534 0.00074608682796 0.00076816723191 0.00086067096598 0.0010311092021 0.0012854733052 
0.0016277184467 0.0020592313268 0.0025843142798 0.0031906220626 0.0038691730904 0.0046071174273 0.0053876253602 0.0061900746278 0.0069905250079 
0.0077624837669 0.0084779589519 0.0091087759875 0.0096281020946 0.010012087438 0.010241496823 0.01030317799 0.010191200075 0.0099075058667 
0.0094619588405 0.008871730147 0.0081600538009 0.0073544653629 0.0064847110069 0.0055805518681 0.0046696831523 0.0037759428125 0.0063237214612 
0.0054006547333 0.0046303460039 0.0039888626467 0.0034511830937 0.002993579356 0.0025950019569 0.0022377811978 0.0019078850281 0.0015949046627 
0.0012918851116 0.00099507651522 0.00070365011994 0.00041939926839 0.00014643119624 -0.00010915195439 -0.00033958685038 -0.00053580158262 -0.00068779199776 
-0.00078502718053 -0.00081688879049 -0.00077314670801 -0.00064446988651 -0.00042296775828 -0.00010275854881 0.00031941468586 0.00084850992283 0.001477963073 
0.0021976115114 0.0029953294183 0.003854294122 0.0047530276533 0.0056657659474 0.0065631628635 0.0074133454698 0.0081833158934 0.0088406593159 
0.0093554728904 0.0097023816395 0.0098624624886 0.0098248666449 0.009587924628 0.0091595470173 0.0085568015576 0.007804648472 0.0069339346576 
0.0059788585898 0.0049741932398 0.0039525735798 0.0029421147961 0.0053911779254 0.0044388895159 0.0036440105279 0.0029807722737 0.0024222500626 
0.0019429536041 0.0015203316746 0.001135527462 0.0007736463273 0.00042372548774 7.8536816808e-05 -0.00026569267591 -0.00060959417014 -0.00095098056687 
-0.0012851716894 -0.0016053209985 -0.001902747984 -0.0021672831401 -0.0023876346738 -0.0025517868041 -0.0026474381952 -0.002662486072 -0.0025855566397 
-0.0024065742866 -0.0021173441799 -0.0017120673237 -0.0011874897503 -0.00053938785741 0.00021913729305 0.0010774702795 0.0020193277598 0.0030227736831 
0.0040604709195 0.0051002826075 0.0061062845948 0.0070402159114 0.0078633515785 0.0085387274221 0.0090335825157 0.0093218189556 0.0093862229479 
0.0092201611374 0.0088284778578 0.0082273838462 0.0074432453965 0.0065103397808 0.0054678065114 0.0043561535497 0.0032137359081 0.0020735943158 
0.0042760334125 0.0033004966564 0.002485458741 0.0018035020039 0.001225941968 0.00072563901308 0.00027863173158 -0.00013504633374 -0.00053108551445 
-0.0009209463493 -0.0013120873429 -0.0017082791205 -0.0021099490104 -0.0025145269372 -0.0029167809164 -0.0033091416722 -0.0036820230042 -0.0040241492069 
-0.0043229034501 -0.0045647111451 -0.0047354705934 -0.0048210403029 -0.0048077880747 -0.0046832007968 -0.0044365443416 -0.0040595495398 -0.0035470996884 
-0.0028889536058 -0.0020969494745 -0.0011799782561 -0.00015326624343 0.0009613050199 0.0021352292307 0.0033338017917 0.0045170233437 0.0056410410642 
0.0066601456686 0.0075292800099 0.0082069356926 0.0086582240102 0.0088578201872 0.0087924155101 0.0084622946197 0.0078817067659 0.0070778305195 
0.0060883307263 0.0049577377793 0.0037330850643 0.0024593596885 0.0011753150394 0.0029734116461 0.0019808614085 0.0011502622581 0.00045272220741 
-0.00014203874091 -0.00066265770017 -0.001134371865 -0.0015781469362 -0.0020103881842 -0.0024430059635 -0.0028836741586 -0.0033361756988 -0.0038007715625 
-0.0042745594507 -0.0047518089651 -0.0052242742301 -0.0056814939548 -0.0061110943239 -0.006499112352 -0.0068303571048 -0.0070888247716 -0.0072581814905 
-0.0073223250245 -0.0072660334446 -0.0070757087985 -0.0067402395317 -0.0062520882946 -0.0055946260856 -0.0047777047434 -0.0038073248446 -0.0026968824738 
-0.0014675143776 -0.00014830288619 0.0012239045774 0.0026052079477 0.0039460060968 0.0051930505376 0.006292197722 0.0071917631346 0.0078462643192 
0.008220214495 0.0082915177301 0.0080539541618 0.0075182652603 0.0067114806471 0.005674369822 0.0044572164255 0.0031144231916 0.0016986680937 
0.00025537109269 0.001480478825 0.00047727128685 -0.00036427269415 -0.0010742903332 -0.0016844246526 -0.002224602695 -0.0027211722024 -0.0031959849532 
-0.00366610132 -0.004143869628 -0.0046372060178 -0.0051499601732 -0.005682297295 -0.0062310592301 -0.0067900910523 -0.0073505354345 -0.0079011072384 
-0.0084283663673 -0.0089170091482 -0.0093501987195 -0.0097099543735 -0.0099776185921 -0.010134418425 -0.010162134988 -0.010043891774 -0.0097650689649 
-0.0093143307204 -0.0086735972633 -0.00784420916 -0.0068293768867 -0.0056399985561 -0.0042956401662 -0.0028251605423 -0.0012668857201 0.00033181009821 
0.0019156618106 0.0034235253432 0.0047912977404 0.0059556964947 0.0068587079147 0.0074523455724 0.0077031901978 0.0075960545904 0.0071360844691 
0.0063487176437 0.0052772003962 0.0039777702165 0.0025130639274 0.00094466128094 -0.00067420434459 -0.00020352166807 -0.0012111477443 -0.0020591553387 
-0.0027786092287 -0.0034022221991 -0.003960977775 -0.0044821748674 -0.0049884654021 -0.0054975418605 -0.0060222158863 -0.006570705016 -0.0071470060972 
-0.0077512804497 -0.0083802104107 -0.0090273122967 -0.0096832082646 -0.01033587054 -0.010970857711 -0.011571565702 -0.012119517278 -0.012594714359 
-0.012976076806 -0.013241989452 -0.013370975653 -0.01334251 -0.013137975247 -0.012741768948 -0.012135719559 -0.011309406038 -0.010262897608 
-0.0090034902143 -0.0075481035141 -0.0059243314477 -0.0041710424769 -0.0023383574066 -0.00048681041211 0.0013144899856 0.0029908301529 0.0044660160664 
0.0056675164166 0.0065322728793 0.007012585932 0.0070812682251 0.006735138276 0.0059959851729 0.0049084251033 0.0035345823814 0.00194615547 
0.00021498020623 -0.0015965344968 -0.0020773234108 -0.0030834544823 -0.0039336562108 -0.0046595381611 -0.0052945651198 -0.0058705489387 -0.0064156037648 
-0.0069531258462 -0.0075014462934 -0.008073891805 -0.0086790643912 -0.0093212120857 -0.010000609727 -0.010713905227 -0.011454413972 -0.012212362919 
-0.01297509821 -0.013727277407 -0.014451071514 -0.015126404185 -0.015731256666 -0.016242066818 -0.016634248991 -0.016882857873 -0.016963410948 
-0.016852861231 -0.016530634109 -0.015979328654 -0.015175116696 -0.014113742546 -0.012797674512 -0.011239941225 -0.0094656125277 -0.00751288614 
-0.0054335682998 -0.0032926945188 -0.0011670275718 0.0008577943109 0.0026915885338 0.0042453933422 0.005438365688 0.006205190971 0.0065030548263 
0.0063169808834 0.0056622937853 0.0045832300476 0.0031473232054 0.0014360329099 -0.00046708026604 -0.0024888388987 -0.0041376736012 -0.0051368865522 
-0.0059852905015 -0.006714624664 -0.0073587797307 -0.0079501751197 -0.0085176205442 -0.0090852219314 -0.009671980767 -0.010291820229 -0.010953844099 
-0.011662693484 -0.012418913966 -0.013219283832 -0.014057083082 -0.014922303411 -0.015801813003 -0.016679498547 -0.017536411917 -0.018350952088 
-0.019099114405 -0.019754839759 -0.020290495805 -0.020677521018 -0.020887260548 -0.020892023512 -0.020666414011 -0.020189133034 -0.019429519135 
-0.018374116112 -0.017019338067 -0.015373002921 -0.013456234233 -0.011305091237 -0.0089716608138 -0.0065242934401 -0.0040466325183 -0.0016350960948 
0.00060545335659 0.0025679434003 0.0041510349846 0.0052681800186 0.0058567356213 0.0058856581472 0.0053600867375 0.0043212957391 0.0028411555801 
0.0010113268992 -0.0010713790612 -0.0033211879769 -0.0063793814764 -0.0073669491322 -0.0082099769463 -0.0089398848531 -0.00959064123 -0.010195046648 
-0.010782498061 -0.0113778043 -0.01200071112 -0.012665871708 -0.013383065383 -0.014157523614 -0.014990270067 -0.015878420667 -0.016815419922 
-0.017791211698 -0.0187923576 -0.019802125853 -0.020800579648 -0.021764697605 -0.022668561138 -0.023483644683 -0.024179245522 -0.024723090463 
-0.025082157439 -0.025223755124 -0.025116930894 -0.024734403349 -0.024045167681 -0.023020224344 -0.0216490297 -0.019932900571 -0.017887500931 
-0.015545075333 -0.012956259324 -0.010191092775 -0.0073387972318 -0.0045058525763 -0.0018119468973 0.00061647890809 0.0026550718626 0.0041923039906 