# vtk DataFile Version 4.1
vtk output
ASCII
DATASET STRUCTURED_GRID
DIMENSIONS 51 51 1
POINTS 2601 float
0 0 0 0.02 0 0 0.04 0 0 
0.06 0 0 0.08 0 0 0.1 0 0 
0.12 0 0 0.14 0 0 0.16 0 0 
0.18 0 0 0.2 0 0 0.22 0 0 
0.24 0 0 0.26 0 0 0.28 0 0 
0.3 0 0 0.32 0 0 0.34 0 0 
0.36 0 0 0.38 0 0 0.4 0 0 
0.42 0 0 0.44 0 0 0.46 0 0 
0.48 0 0 0.5 0 0 0.52 0 0 
0.54 0 0 0.56 0 0 0.58 0 0 
0.6 0 0 0.62 0 0 0.64 0 0 
0.66 0 0 0.68 0 0 0.7 0 0 
0.72 0 0 0.74 0 0 0.76 0 0 
0.78 0 0 0.8 0 0 0.82 0 0 
0.84 0 0 0.86 0 0 0.88 0 0 
0.9 0 0 0.92 0 0 0.94 0 0 
0.96 0 0 0.98 0 0 1 0 0 
0 0.02 0 0.02 0.02 0 0.04 0.02 0 
0.06 0.02 0 0.08 0.02 0 0.1 0.02 0 
0.12 0.02 0 0.14 0.02 0 0.16 0.02 0 
0.18 0.02 0 0.2 0.02 0 0.22 0.02 0 
0.24 0.02 0 0.26 0.02 0 0.28 0.02 0 
0.3 0.02 0 0.32 0.02 0 0.34 0.02 0 
0.36 0.02 0 0.38 0.02 0 0.4 0.02 0 
0.42 0.02 0 0.44 0.02 0 0.46 0.02 0 
0.48 0.02 0 0.5 0.02 0 0.52 0.02 0 
0.54 0.02 0 0.56 0.02 0 0.58 0.02 0 
0.6 0.02 0 0.62 0.02 0 0.64 0.02 0 
0.66 0.02 0 0.68 0.02 0 0.7 0.02 0 
0.72 0.02 0 0.74 0.02 0 0.76 0.02 0 
0.78 0.02 0 0.8 0.02 0 0.82 0.02 0 
0.84 0.02 0 0.86 0.02 0 0.88 0.02 0 
0.9 0.02 0 0.92 0.02 0 0.94 0.02 0 
0.96 0.02 0 0.98 0.02 0 1 0.02 0 
0 0.04 0 0.02 0.04 0 0.04 0.04 0 
0.06 0.04 0 0.08 0.04 0 0.1 0.04 0 
0.12 0.04 0 0.14 0.04 0 0.16 0.04 0 
0.18 0.04 0 0.2 0.04 0 0.22 0.04 0 
0.24 0.04 0 0.26 0.04 0 0.28 0.04 0 
0.3 0.04 0 0.32 0.04 0 0.34 0.04 0 
0.36 0.04 0 0.38 0.04 0 0.4 0.04 0 
0.42 0.04 0 0.44 0.04 0 0.46 0.04 0 
0.48 0.04 0 0.5 0.04 0 0.52 0.04 0 
0.54 0.04 0 0.56 0.04 0 0.58 0.04 0 
0.6 0.04 0 0.62 0.04 0 0.64 0.04 0 
0.66 0.04 0 0.68 0.04 0 0.7 0.04 0 
0.72 0.04 0 0.74 0.04 0 0.76 0.04 0 
0.78 0.04 0 0.8 0.04 0 0.82 0.04 0 
0.84 0.04 0 0.86 0.04 0 0.88 0.04 0 
0.9 0.04 0 0.92 0.04 0 0.94 0.04 0 
0.96 0.04 0 0.98 0.04 0 1 0.04 0 
0 0.06 0 0.02 0.06 0 0.04 0.06 0 
0.06 0.06 0 0.08 0.06 0 0.1 0.06 0 
0.12 0.06 0 0.14 0.06 0 0.16 0.06 0 
0.18 0.06 0 0.2 0.06 0 0.22 0.06 0 
0.24 0.06 0 0.26 0.06 0 0.28 0.06 0 
0.3 0.06 0 0.32 0.06 0 0.34 0.06 0 
0.36 0.06 0 0.38 0.06 0 0.4 0.06 0 
0.42 0.06 0 0.44 0.06 0 0.46 0.06 0 
0.48 0.06 0 0.5 0.06 0 0.52 0.06 0 
0.54 0.06 0 0.56 0.06 0 0.58 0.06 0 
0.6 0.06 0 0.62 0.06 0 0.64 0.06 0 
0.66 0.06 0 0.68 0.06 0 0.7 0.06 0 
0.72 0.06 0 0.74 0.06 0 0.76 0.06 0 
0.78 0.06 0 0.8 0.06 0 0.82 0.06 0 
0.84 0.06 0 0.86 0.06 0 0.88 0.06 0 
0.9 0.06 0 0.92 0.06 0 0.94 0.06 0 
0.96 0.06 0 0.98 0.06 0 1 0.06 0 
0 0.08 0 0.02 0.08 0 0.04 0.08 0 
0.06 0.08 0 0.08 0.08 0 0.1 0.08 0 
0.12 0.08 0 0.14 0.08 0 0.16 0.08 0 
0.18 0.08 0 0.2 0.08 0 0.22 0.08 0 
0.24 0.08 0 0.26 0.08 0 0.28 0.08 0 
0.3 0.08 0 0.32 0.08 0 0.34 0.08 0 
0.36 0.08 0 0.38 0.08 0 0.4 0.08 0 
0.42 0.08 0 0.44 0.08 0 0.46 0.08 0 
0.48 0.08 0 0.5 0.08 0 0.52 0.08 0 
0.54 0.08 0 0.56 0.08 0 0.58 0.08 0 
0.6 0.08 0 0.62 0.08 0 0.64 0.08 0 
0.66 0.08 0 0.68 0.08 0 0.7 0.08 0 
0.72 0.08 0 0.74 0.08 0 0.76 0.08 0 
0.78 0.08 0 0.8 0.08 0 0.82 0.08 0 
0.84 0.08 0 0.86 0.08 0 0.88 0.08 0 
0.9 0.08 0 0.92 0.08 0 0.94 0.08 0 
0.96 0.08 0 0.98 0.08 0 1 0.08 0 
0 0.1 0 0.02 0.1 0 0.04 0.1 0 
0.06 0.1 0 0.08 0.1 0 0.1 0.1 0 
0.12 0.1 0 0.14 0.1 0 0.16 0.1 0 
0.18 0.1 0 0.2 0.1 0 0.22 0.1 0 
0.24 0.1 0 0.26 0.1 0 0.28 0.1 0 
0.3 0.1 0 0.32 0.1 0 0.34 0.1 0 
0.36 0.1 0 0.38 0.1 0 0.4 0.1 0 
0.42 0.1 0 0.44 0.1 0 0.46 0.1 0 
0.48 0.1 0 0.5 0.1 0 0.52 0.1 0 
0.54 0.1 0 0.56 0.1 0 0.58 0.1 0 
0.6 0.1 0 0.62 0.1 0 0.64 0.1 0 
0.66 0.1 0 0.68 0.1 0 0.7 0.1 0 
0.72 0.1 0 0.74 0.1 0 0.76 0.1 0 
0.78 0.1 0 0.8 0.1 0 0.82 0.1 0 
0.84 0.1 0 0.86 0.1 0 0.88 0.1 0 
0.9 0.1 0 0.92 0.1 0 0.94 0.1 0 
0.96 0.1 0 0.98 0.1 0 1 0.1 0 
0 0.12 0 0.02 0.12 0 0.04 0.12 0 
0.06 0.12 0 0.08 0.12 0 0.1 0.12 0 
0.12 0.12 0 0.14 0.12 0 0.16 0.12 0 
0.18 0.12 0 0.2 0.12 0 0.22 0.12 0 
0.24 0.12 0 0.26 0.12 0 0.28 0.12 0 
0.3 0.12 0 0.32 0.12 0 0.34 0.12 0 
0.36 0.12 0 0.38 0.12 0 0.4 0.12 0 
0.42 0.12 0 0.44 0.12 0 0.46 0.12 0 
0.48 0.12 0 0.5 0.12 0 0.52 0.12 0 
0.54 0.12 0 0.56 0.12 0 0.58 0.12 0 
0.6 0.12 0 0.62 0.12 0 0.64 0.12 0 
0.66 0.12 0 0.68 0.12 0 0.7 0.12 0 
0.72 0.12 0 0.74 0.12 0 0.76 0.12 0 
0.78 0.12 0 0.8 0.12 0 0.82 0.12 0 
0.84 0.12 0 0.86 0.12 0 0.88 0.12 0 
0.9 0.12 0 0.92 0.12 0 0.94 0.12 0 
0.96 0.12 0 0.98 0.12 0 1 0.12 0 
0 0.14 0 0.02 0.14 0 0.04 0.14 0 
0.06 0.14 0 0.08 0.14 0 0.1 0.14 0 
0.12 0.14 0 0.14 0.14 0 0.16 0.14 0 
0.18 0.14 0 0.2 0.14 0 0.22 0.14 0 
0.24 0.14 0 0.26 0.14 0 0.28 0.14 0 
0.3 0.14 0 0.32 0.14 0 0.34 0.14 0 
0.36 0.14 0 0.38 0.14 0 0.4 0.14 0 
0.42 0.14 0 0.44 0.14 0 0.46 0.14 0 
0.48 0.14 0 0.5 0.14 0 0.52 0.14 0 
0.54 0.14 0 0.56 0.14 0 0.58 0.14 0 
0.6 0.14 0 0.62 0.14 0 0.64 0.14 0 
0.66 0.14 0 0.68 0.14 0 0.7 0.14 0 
0.72 0.14 0 0.74 0.14 0 0.76 0.14 0 
0.78 0.14 0 0.8 0.14 0 0.82 0.14 0 
0.84 0.14 0 0.86 0.14 0 0.88 0.14 0 
0.9 0.14 0 0.92 0.14 0 0.94 0.14 0 
0.96 0.14 0 0.98 0.14 0 1 0.14 0 
0 0.16 0 0.02 0.16 0 0.04 0.16 0 
0.06 0.16 0 0.08 0.16 0 0.1 0.16 0 
0.12 0.16 0 0.14 0.16 0 0.16 0.16 0 
0.18 0.16 0 0.2 0.16 0 0.22 0.16 0 
0.24 0.16 0 0.26 0.16 0 0.28 0.16 0 
0.3 0.16 0 0.32 0.16 0 0.34 0.16 0 
0.36 0.16 0 0.38 0.16 0 0.4 0.16 0 
0.42 0.16 0 0.44 0.16 0 0.46 0.16 0 
0.48 0.16 0 0.5 0.16 0 0.52 0.16 0 
0.54 0.16 0 0.56 0.16 0 0.58 0.16 0 
0.6 0.16 0 0.62 0.16 0 0.64 0.16 0 
0.66 0.16 0 0.68 0.16 0 0.7 0.16 0 
0.72 0.16 0 0.74 0.16 0 0.76 0.16 0 
0.78 0.16 0 0.8 0.16 0 0.82 0.16 0 
0.84 0.16 0 0.86 0.16 0 0.88 0.16 0 
0.9 0.16 0 0.92 0.16 0 0.94 0.16 0 
0.96 0.16 0 0.98 0.16 0 1 0.16 0 
0 0.18 0 0.02 0.18 0 0.04 0.18 0 
0.06 0.18 0 0.08 0.18 0 0.1 0.18 0 
0.12 0.18 0 0.14 0.18 0 0.16 0.18 0 
0.18 0.18 0 0.2 0.18 0 0.22 0.18 0 
0.24 0.18 0 0.26 0.18 0 0.28 0.18 0 
0.3 0.18 0 0.32 0.18 0 0.34 0.18 0 
0.36 0.18 0 0.38 0.18 0 0.4 0.18 0 
0.42 0.18 0 0.44 0.18 0 0.46 0.18 0 
0.48 0.18 0 0.5 0.18 0 0.52 0.18 0 
0.54 0.18 0 0.56 0.18 0 0.58 0.18 0 
0.6 0.18 0 0.62 0.18 0 0.64 0.18 0 
0.66 0.18 0 0.68 0.18 0 0.7 0.18 0 
0.72 0.18 0 0.74 0.18 0 0.76 0.18 0 
0.78 0.18 0 0.8 0.18 0 0.82 0.18 0 
0.84 0.18 0 0.86 0.18 0 0.88 0.18 0 
0.9 0.18 0 0.92 0.18 0 0.94 0.18 0 
0.96 0.18 0 0.98 0.18 0 1 0.18 0 
0 0.2 0 0.02 0.2 0 0.04 0.2 0 
0.06 0.2 0 0.08 0.2 0 0.1 0.2 0 
0.12 0.2 0 0.14 0.2 0 0.16 0.2 0 
0.18 0.2 0 0.2 0.2 0 0.22 0.2 0 
0.24 0.2 0 0.26 0.2 0 0.28 0.2 0 
0.3 0.2 0 0.32 0.2 0 0.34 0.2 0 
0.36 0.2 0 0.38 0.2 0 0.4 0.2 0 
0.42 0.2 0 0.44 0.2 0 0.46 0.2 0 
0.48 0.2 0 0.5 0.2 0 0.52 0.2 0 
0.54 0.2 0 0.56 0.2 0 0.58 0.2 0 
0.6 0.2 0 0.62 0.2 0 0.64 0.2 0 
0.66 0.2 0 0.68 0.2 0 0.7 0.2 0 
0.72 0.2 0 0.74 0.2 0 0.76 0.2 0 
0.78 0.2 0 0.8 0.2 0 0.82 0.2 0 
0.84 0.2 0 0.86 0.2 0 0.88 0.2 0 
0.9 0.2 0 0.92 0.2 0 0.94 0.2 0 
0.96 0.2 0 0.98 0.2 0 1 0.2 0 
0 0.22 0 0.02 0.22 0 0.04 0.22 0 
0.06 0.22 0 0.08 0.22 0 0.1 0.22 0 
0.12 0.22 0 0.14 0.22 0 0.16 0.22 0 
0.18 0.22 0 0.2 0.22 0 0.22 0.22 0 
0.24 0.22 0 0.26 0.22 0 0.28 0.22 0 
0.3 0.22 0 0.32 0.22 0 0.34 0.22 0 
0.36 0.22 0 0.38 0.22 0 0.4 0.22 0 
0.42 0.22 0 0.44 0.22 0 0.46 0.22 0 
0.48 0.22 0 0.5 0.22 0 0.52 0.22 0 
0.54 0.22 0 0.56 0.22 0 0.58 0.22 0 
0.6 0.22 0 0.62 0.22 0 0.64 0.22 0 
0.66 0.22 0 0.68 0.22 0 0.7 0.22 0 
0.72 0.22 0 0.74 0.22 0 0.76 0.22 0 
0.78 0.22 0 0.8 0.22 0 0.82 0.22 0 
0.84 0.22 0 0.86 0.22 0 0.88 0.22 0 
0.9 0.22 0 0.92 0.22 0 0.94 0.22 0 
0.96 0.22 0 0.98 0.22 0 1 0.22 0 
0 0.24 0 0.02 0.24 0 0.04 0.24 0 
0.06 0.24 0 0.08 0.24 0 0.1 0.24 0 
0.12 0.24 0 0.14 0.24 0 0.16 0.24 0 
0.18 0.24 0 0.2 0.24 0 0.22 0.24 0 
0.24 0.24 0 0.26 0.24 0 0.28 0.24 0 
0.3 0.24 0 0.32 0.24 0 0.34 0.24 0 
0.36 0.24 0 0.38 0.24 0 0.4 0.24 0 
0.42 0.24 0 0.44 0.24 0 0.46 0.24 0 
0.48 0.24 0 0.5 0.24 0 0.52 0.24 0 
0.54 0.24 0 0.56 0.24 0 0.58 0.24 0 
0.6 0.24 0 0.62 0.24 0 0.64 0.24 0 
0.66 0.24 0 0.68 0.24 0 0.7 0.24 0 
0.72 0.24 0 0.74 0.24 0 0.76 0.24 0 
0.78 0.24 0 0.8 0.24 0 0.82 0.24 0 
0.84 0.24 0 0.86 0.24 0 0.88 0.24 0 
0.9 0.24 0 0.92 0.24 0 0.94 0.24 0 
0.96 0.24 0 0.98 0.24 0 1 0.24 0 
0 0.26 0 0.02 0.26 0 0.04 0.26 0 
0.06 0.26 0 0.08 0.26 0 0.1 0.26 0 
0.12 0.26 0 0.14 0.26 0 0.16 0.26 0 
0.18 0.26 0 0.2 0.26 0 0.22 0.26 0 
0.24 0.26 0 0.26 0.26 0 0.28 0.26 0 
0.3 0.26 0 0.32 0.26 0 0.34 0.26 0 
0.36 0.26 0 0.38 0.26 0 0.4 0.26 0 
0.42 0.26 0 0.44 0.26 0 0.46 0.26 0 
0.48 0.26 0 0.5 0.26 0 0.52 0.26 0 
0.54 0.26 0 0.56 0.26 0 0.58 0.26 0 
0.6 0.26 0 0.62 0.26 0 0.64 0.26 0 
0.66 0.26 0 0.68 0.26 0 0.7 0.26 0 
0.72 0.26 0 0.74 0.26 0 0.76 0.26 0 
0.78 0.26 0 0.8 0.26 0 0.82 0.26 0 
0.84 0.26 0 0.86 0.26 0 0.88 0.26 0 
0.9 0.26 0 0.92 0.26 0 0.94 0.26 0 
0.96 0.26 0 0.98 0.26 0 1 0.26 0 
0 0.28 0 0.02 0.28 0 0.04 0.28 0 
0.06 0.28 0 0.08 0.28 0 0.1 0.28 0 
0.12 0.28 0 0.14 0.28 0 0.16 0.28 0 
0.18 0.28 0 0.2 0.28 0 0.22 0.28 0 
0.24 0.28 0 0.26 0.28 0 0.28 0.28 0 
0.3 0.28 0 0.32 0.28 0 0.34 0.28 0 
0.36 0.28 0 0.38 0.28 0 0.4 0.28 0 
0.42 0.28 0 0.44 0.28 0 0.46 0.28 0 
0.48 0.28 0 0.5 0.28 0 0.52 0.28 0 
0.54 0.28 0 0.56 0.28 0 0.58 0.28 0 
0.6 0.28 0 0.62 0.28 0 0.64 0.28 0 
0.66 0.28 0 0.68 0.28 0 0.7 0.28 0 
0.72 0.28 0 0.74 0.28 0 0.76 0.28 0 
0.78 0.28 0 0.8 0.28 0 0.82 0.28 0 
0.84 0.28 0 0.86 0.28 0 0.88 0.28 0 
0.9 0.28 0 0.92 0.28 0 0.94 0.28 0 
0.96 0.28 0 0.98 0.28 0 1 0.28 0 
0 0.3 0 0.02 0.3 0 0.04 0.3 0 
0.06 0.3 0 0.08 0.3 0 0.1 0.3 0 
0.12 0.3 0 0.14 0.3 0 0.16 0.3 0 
0.18 0.3 0 0.2 0.3 0 0.22 0.3 0 
0.24 0.3 0 0.26 0.3 0 0.28 0.3 0 
0.3 0.3 0 0.32 0.3 0 0.34 0.3 0 
0.36 0.3 0 0.38 0.3 0 0.4 0.3 0 
0.42 0.3 0 0.44 0.3 0 0.46 0.3 0 
0.48 0.3 0 0.5 0.3 0 0.52 0.3 0 
0.54 0.3 0 0.56 0.3 0 0.58 0.3 0 
0.6 0.3 0 0.62 0.3 0 0.64 0.3 0 
0.66 0.3 0 0.68 0.3 0 0.7 0.3 0 
0.72 0.3 0 0.74 0.3 0 0.76 0.3 0 
0.78 0.3 0 0.8 0.3 0 0.82 0.3 0 
0.84 0.3 0 0.86 0.3 0 0.88 0.3 0 
0.9 0.3 0 0.92 0.3 0 0.94 0.3 0 
0.96 0.3 0 0.98 0.3 0 1 0.3 0 
0 0.32 0 0.02 0.32 0 0.04 0.32 0 
0.06 0.32 0 0.08 0.32 0 0.1 0.32 0 
0.12 0.32 0 0.14 0.32 0 0.16 0.32 0 
0.18 0.32 0 0.2 0.32 0 0.22 0.32 0 
0.24 0.32 0 0.26 0.32 0 0.28 0.32 0 
0.3 0.32 0 0.32 0.32 0 0.34 0.32 0 
0.36 0.32 0 0.38 0.32 0 0.4 0.32 0 
0.42 0.32 0 0.44 0.32 0 0.46 0.32 0 
0.48 0.32 0 0.5 0.32 0 0.52 0.32 0 
0.54 0.32 0 0.56 0.32 0 0.58 0.32 0 
[...]
CELL_DATA 2500
FIELD FieldData 1
pressure 1 2500 double
0.0061822040991 0.006119390819 0.0059287588088 0.0056510561082 0.0053298268727 0.0049997842783 0.0046856742486 0.0044045291026 0.0041681107638 
0.0039845184579 0.0038591379907 0.0037953130733 0.0037949157956 0.0038588435298 0.0039874286231 0.0041807155724 0.0044385403037 0.0047603963753 
0.0051451689368 0.0055908642893 0.0060944160995 0.0066515620808 0.0072567381883 0.007902956283 0.0085816758612 0.0092826991487 0.0099937432275 
0.010701603566 0.011392350861 0.012051451015 0.012664193486 0.013216221221 0.013694126063 0.014086073662 0.014382423375 0.014576309515 
0.014664149318 0.014646043369 0.014526040654 0.01431225367 0.014016825335 0.013655765066 0.01324868373 0.012818462015 0.012390883903 
0.011994136792 0.011658047959 0.011412158263 0.011280555487 0.011268146851 0.0062535226747 0.0061861996155 0.0060206686231 0.0057903485702 
0.0055256212376 0.0052514755188 0.0049875941812 0.0047491963532 0.0045476718233 0.0043911181648 0.004284985386 0.0042327683933 0.0042366214324 
0.0042978535989 0.0044172873872 0.0045954278241 0.0048324197158 0.005127868191 0.0054806502748 0.0058887922253 0.0063493920821 0.006858525106 
0.0074111046007 0.0080007300402 0.0086195804346 0.0092583977352 0.0099056038271 0.010549222106 0.011176682841 0.011774901296 0.01233069279 
0.012831259207 0.013264724912 0.013620695084 0.01389080828 0.014069251722 0.014153204598 0.014143176815 0.01404321948 0.013860995409 
0.01360770947 0.013297908308 0.012949165642 0.012581668622 0.012217702961 0.011880983155 0.011595633065 0.01138461347 0.011267090143 
0.011255728758 0.0064480677135 0.0063466684068 0.0061785772771 0.0059671768615 0.00573251464 0.005492388079 0.005262365233 0.0050552347261 
0.0048806742992 0.0047455493574 0.0046545856597 0.0046110232238 0.0046171138866 0.0046744851222 0.0047843540071 0.00494755159 0.0051644072754 
0.0054346207912 0.0057572032276 0.0061304549885 0.0065518962624 0.0070181143475 0.0075245734707 0.0080654658576 0.0086336534235 0.0092207055649 
0.009815527063 0.010407158532 0.010984069382 0.011534239185 0.01204555732 0.012506282858 0.012905546277 0.013233871485 0.013483691827 
0.013649827016 0.013729885327 0.013724560229 0.013637800022 0.01347683852 0.013252083295 0.012976866664 0.012667071886 0.012340649366 
0.012017029263 0.011716416011 0.011458922411 0.011263578187 0.011147436998 0.011125934711 0.0067300649139 0.0065747425955 0.0063832319883 
0.0061685838524 0.0059433424312 0.0057201739163 0.0055108074995 0.0053248289485 0.0051693649374 0.0050495414765 0.0049690986616 0.0049308367214 
0.0049369200255 0.0049890876221 0.0050887262549 0.0052368040327 0.0054337706963 0.0056795248689 0.0059734303569 0.006314281648 0.0067001583603 
0.0071282077583 0.0075944484521 0.0080936607507 0.0086193671464 0.0091638751089 0.0097164824828 0.010267017661 0.010804691608 0.011318201855 
0.011796119356 0.012227332851 0.012601534716 0.012909728884 0.013144732836 0.013301637727 0.013378190155 0.013375065435 0.013296010435 
0.013147841401 0.012940290701 0.012685707151 0.012398625383 0.012095227033 0.011792717511 0.011508640847 0.011260164888 0.011063426979 
0.01093315123 0.010882984653 0.0070625372425 0.0068424582747 0.0066127205096 0.0063788144603 0.0061482005139 0.0059293355668 0.0057299514654 
0.0055560870342 0.0054121874882 0.0053016186095 0.0052270503644 0.0051906651246 0.0051943109915 0.0052395953971 0.0053278669093 0.0054601345821 
0.0056370276572 0.0058588125684 0.0061253796395 0.0064361180684 0.0067896933139 0.0071838149995 0.0076150743193 0.0080788671922 0.0085693725468 
0.0090795605667 0.0095990704052 0.010118275168 0.010626873423 0.011113986085 0.011568533115 0.01197967049 0.012337274369 0.012632451985 
0.012858047275 0.013009102369 0.013083237573 0.013080918741 0.013005587141 0.012863633699 0.012664210036 0.012418882895 0.012141152984 
0.011845870444 0.011548585528 0.011264877877 0.011009716175 0.010796917159 0.010638790956 0.010545993758 0.0074128627082 0.0071225075098 
0.0068450483756 0.0065815019407 0.006335574774 0.0061117100305 0.0059136328996 0.0057440393931 0.0056049636217 0.0054981196669 0.0054250263574 
0.0053870690309 0.0053855754906 0.0054218428692 0.0054970900734 0.0056124028569 0.0057687179809 0.0059667993322 0.0062071279668 0.0064896923996 
0.0068137419185 0.0071775793981 0.0075784248713 0.0080123311042 0.0084741226855 0.0089573588155 0.0094519960968 0.0099487131892 0.010437492092 
0.010907633523 0.011348125601 0.01174808149 0.012097233804 0.012386461549 0.012608313333 0.012757485894 0.012831219494 0.012829576138 
0.012755571034 0.012615135277 0.012416901383 0.01217182074 0.011892639474 0.011593272993 0.011288128502 0.01099142935 0.010716594356 
0.0104757142 0.010279129035 0.010134990912 0.0077527241434 0.0073897815713 0.0070595621965 0.0067604594212 0.0064927996449 0.0062571009579 
0.0060534372776 0.0058816496167 0.0057416793667 0.005633658829 0.0055578794437 0.0055148095657 0.0055051476296 0.0055298293031 0.0055899833399 
0.0056868773816 0.0058218535369 0.0059962105445 0.0062110095529 0.0064668330279 0.0067635509708 0.007100129902 0.0074744839941 0.0078833490808 
0.0083221731931 0.0087850440329 0.0092622573665 0.0097445716196 0.010222093168 0.010684102439 0.01111941818 0.011516843364 0.011865678445 
0.012156273477 0.01238058017 0.012532662009 0.01260912184 0.012609408003 0.012535963515 0.012394192283 0.012192233021 0.011940551604 
0.011651382406 0.011338065217 0.011014335164 0.010693626452 0.010388443101 0.010109825172 0.0098668876272 0.0096663177342 0.0080574051567 
0.0076219407791 0.0072373313961 0.0068998476983 0.0066064365828 0.0063539891544 0.0061394885186 0.0059603935182 0.0058147722445 0.0057012129109 
0.0056187537152 0.0055669215429 0.0055457981075 0.0055560276899 0.0055987549048 0.0056755138659 0.0057880771543 0.0059382631685 0.0061277097758 
0.0063576346785 0.0066286046383 0.0069403258648 0.0072914540661 0.0076794200926 0.0081002811814 0.0085486230268 0.0090151620383 0.0094905226035 
0.0099648152235 0.010427138754 0.010865943829 0.011269491426 0.011626389341 0.011926175703 0.012159910112 0.012320729786 0.012404326336 
0.012409297817 0.012337334034 0.012193204777 0.011984539525 0.011721409223 0.011415742785 0.011080629732 0.010729573416 0.010375762415 
0.010031416856 0.0097072372806 0.0094119338122 0.0091517449259 0.0083053274344 0.0077993120679 0.0073609565482 0.0069841789398 0.0066626275172 
0.0063900486263 0.0061608693911 0.0059704954083 0.0058152496787 0.0056922191896 0.0055992291598 0.0055349389016 0.0054989283595 0.0054916788484 
0.0055144425682 0.0055690490561 0.0056576933941 0.0057827195748 0.0059463900709 0.0061506362671 0.0063968008625 0.0066853884721 0.0070158316812 
0.007386276649 0.0077934026363 0.008232298278 0.008694247121 0.0091695365948 0.0096481988813 0.010119028717 0.010569946313 0.010988468413 
0.011362268963 0.011679798785 0.011930925751 0.01210755131 0.012204153807 0.012218206034 0.012150418225 0.012004770786 0.011788321006 
0.01151079161 0.011183973709 0.010820998905 0.010435551309 0.01004109451 0.0096501771428 0.009273850934 0.0089211886264 0.0085988327548 
0.0084776600325 0.0079044021235 0.0074141930127 0.0069982949865 0.0066473483597 0.0063524620764 0.0061058918512 0.005901170763 0.0057329459921 
0.0055968649483 0.0054896469691 0.0054092387122 0.0053548804896 0.0053270049737 0.0053270171982 0.0053570500278 0.0054197424966 0.0055180226742 
0.0056548592704 0.0058329765488 0.0060545570996 0.0063209551748 0.0066324265272 0.0069878787152 0.0073846579109 0.0078183936225 0.0082811509836 
0.0087626957517 0.009252940605 0.0097402942125 0.010212019262 0.010654711849 0.01105488502 0.01139962835 0.011677306282 0.011878248862 
0.011995379541 0.012024720292 0.011965717925 0.011821348442 0.011597976353 0.011304970852 0.010954108657 0.01055881973 0.010133351948 
0.0096919378089 0.0092480361249 0.0088136929755 0.0083990222387 0.0080117553769 0.0085577781908 0.0079212719128 0.0073816215106 0.0069274026495 
0.0065466550355 0.006228244787 0.0059624583237 0.0057410150144 0.0055569228236 0.0054044886375 0.0052794995308 0.0051793841033 0.0051031872458 
0.0050513601335 0.0050254862122 0.005028039645 0.0050621748139 0.0051314912198 0.005239743218 0.0053905138175 0.0055868868038 0.0058311313012 
0.0061243971662 0.0064664276657 0.0068553100798 0.0072872853279 0.0077554868548 0.0082490068027 0.008757643013 0.0092693797976 0.0097707316402 
0.010247223563 0.01068399416 0.011066496927 0.011381264162 0.011616684765 0.01176373546 0.011816598679 0.011773102491 0.01163492913 
0.011407557891 0.011099934509 0.010723890545 0.010293367725 0.0098235271127 0.0093298345059 0.0088272065828 0.0083292758907 0.0078477907221 
0.0073921176848 0.0085306070674 0.0078350204313 0.0072485249683 0.0067572573403 0.0063470199862 0.0060046418027 0.0057184731952 0.0054784027495 
0.0052758531451 0.0051039543365 0.0049577766229 0.0048344041351 0.0047327748079 0.0046533965908 0.0045980799441 0.0045697222449 0.004572087475 
0.0046095275026 0.0046866483889 0.0048079581859 0.0049775192334 0.0051986037624 0.0054733506827 0.0058024380754 0.0061847959153 0.0066173812693 
0.0070947679608 0.0076052643517 0.0081386110838 0.0086823793817 0.00922228608 0.0097426652376 0.010227084599 0.010659087428 0.011023026463 
0.011304940309 0.011493407935 0.011580307788 0.011561406676 0.011436711289 0.011210532577 0.010891240476 0.01049072155 0.010023589256 
0.0095062281881 0.0089557720711 0.0083891141205 0.0078220259413 0.0072684213827 0.0067397546498 0.0083820779024 0.0076315636254 0.0070010123897 
0.0064744611002 0.0060356720247 0.0056694468109 0.0053621267284 0.005101760503 0.0048783148893 0.0046839630996 0.0045132558836 0.0043630388252 
0.0042321852989 0.0041213082464 0.0040325300395 0.0039692704106 0.0039359858305 0.0039378453499 0.0039803729294 0.0040690835794 0.0042091155113 
0.0044048514697 0.0046595353168 0.0049749040227 0.0053508572307 0.0057851837379 0.0062744373877 0.0068060157098 0.007369744379 0.0079528522075 
0.0085402580191 0.0091150241252 0.0096589763602 0.010153480372 0.010580345995 0.010922811508 0.011166541534 0.011300558606 0.011318021482 
0.011216765766 0.010999536477 0.010673869463 0.010251616864 0.0097481554553 0.0091813571432 0.0085704293707 0.0079347411813 0.0072927351169 
0.0066609890363 0.0060534454326 0.0080989036857 0.0072977204728 0.0066262646184 0.0060667073115 0.0056007730918 0.0052111229153 0.0048820200555 
0.0045997571569 0.0043530561288 0.0041333474677 0.0039347825059 0.0037540074031 0.0035898667206 0.0034431555434 0.0033164070138 0.0032136467834 
0.0031400855286 0.0031017703388 0.0031052212128 0.003157056834 0.0032636011838 0.0034304704006 0.0036621527756 0.0039615996371 0.0043298435531 
0.0047656622028 0.0052680739328 0.0058236767225 0.0064225748716 0.0070517790421 0.0076954660497 0.0083353971203 0.0089515235933 0.0095227844347 
0.010028075645 0.01044734801 0.010762767302 0.010959851094 0.011028481784 0.010963690603 0.010766116186 0.01044206644 0.010003153074 
0.009465518675 0.0088487281422 0.0081744388999 0.0074649863645 0.0067420166102 0.0060252681343 0.0053315582728 0.007668690142 0.0068214476564 
0.0061127173538 0.0055228499503 0.0050314120994 0.0046188143851 0.0042672811721 0.0039615428129 0.0036893026048 0.0034413834961 0.0032115717324 
0.0029963291822 0.0027945305934 0.0026072449698 0.0024374977714 0.0022899769519 0.0021706979807 0.0020866522246 0.0020454416773 0.0020548897144 
0.0021226230154 0.0022556309683 0.0024598135846 0.0027395280202 0.003097146371 0.0035326531204 0.004047729836 0.0046288243577 0.0052664983796 
0.0059477139544 0.0066560312994 0.0073719510997 0.0080734751247 0.0087369027947 0.009337853016 0.0098524753357 0.010258787771 0.010538051211 
0.010676066264 0.010664263764 0.010500460379 0.010189170837 0.0097414090348 0.0091739679567 0.0085082345913 0.0077686578931 0.006981030403 
0.0061707567044 0.005361261399 0.0045726430635 0.0070802178044 0.0061920390189 0.0054501051532 0.004832852942 0.0043175754606 0.0038824402169 
0.0035078062902 0.0031770777044 0.0028770948957 0.0025981097824 0.0023335380166 0.0020796917866 0.0018355546816 0.0016025462607 0.0013842333915 
0.0011860026744 0.0010147219227 0.00087839304214 0.0007857815569 0.00074601365061 0.00076814246237 0.00086068879511 0.0010311593904 0.0012855452505 
0.0016278039829 0.0020593246942 0.0025844104043 0.0031907165625 0.0038692616868 0.0046071967245 0.0053876926885 0.0061901275329 0.0069905611352 
0.0077625013502 0.0084779574526 0.0091087563266 0.0096280664294 0.010012038759 0.010241438607 0.010303114025 0.010191134343 0.0099074423407 
0.0094619012995 0.0088716820092 0.0081600180111 0.0073544443359 0.0064847065768 0.0055805651884 0.0046697147 0.003775992479 0.0063237059531 
0.0054002207657 0.004629441334 0.0039877802938 0.0034502553305 0.0029929493979 0.0025946016464 0.0022374741201 0.0019075974375 0.001594635928 
0.0012916455538 0.00099485135686 0.00070341591147 0.00041915054735 0.0001461834893 -0.00010937575129 -0.00033976690297 -0.00053592348119 -0.00068784733102 
-0.00078501563024 -0.00081681913114 -0.00077303382723 -0.00064432900593 -0.00042280987848 -0.00010258974097 0.00031959115215 0.00084868880651 0.0014781421912 
0.0021977862481 0.0029954955327 0.0038544474456 0.0047531640299 0.0056658817263 0.0065632556605 0.0074134145935 0.008183362186 0.0088406847072 
0.0093554800247 0.0097023737109 0.0098624432466 0.0098248403633 0.00958789593 0.0091595206273 0.0085567820107 0.0078046398612 0.0069339404051 
0.0059788812754 0.0049742345069 0.003952634255 0.0029421950809 0.0053909777241 0.0044381946617 0.0036430518184 0.0029799236693 0.0024217037812 
0.0019426485404 0.0015200998438 0.0011352661205 0.00077335815605 0.0004234479974 7.8279578198e-05 -0.00026594478738 -0.00060984839482 -0.00095122400722 
-0.0012853828216 -0.0016054818117 -0.0019028461874 -0.0021673109834 -0.0023875904923 -0.0025516772741 -0.0026472770125 -0.002662288723 -0.002585335009 
-0.002406334834 -0.0021170899873 -0.0017118012828 -0.0011872164272 -0.00053911220575 0.00021940948881 0.0010777332425 0.0020195757479 0.0030230013418 
0.0040606740061 0.0051004585541 0.0061064324898 0.0070403360602 0.0078634451334 0.0085387963121 0.0090336295907 0.0093218481369 0.009386239156 
0.0092201699761 0.0088284851773 0.0082273952985 0.0074432660828 0.0065103739561 0.0054678574192 0.0043562233876 0.003213826013 0.0020737053702 
0.0042755581789 0.0032997057476 0.0024847046304 0.0018030273152 0.0012257138427 0.00072546443713 0.00027836894372 -0.00013539756774 -0.00053144978351 
-0.00092126982608 -0.0013123640106 -0.0017085192308 -0.0021101524189 -0.0025146847419 -0.0029168859199 -0.0033091902149 -0.0036820115278 -0.0040240743439 
-0.0043227658345 -0.0045645175723 -0.0047352317201 -0.0048207660211 -0.0048074846564 -0.0046828717104 -0.0044361930445 -0.0040591813561 -0.0035467216356 
-0.0028885723888 -0.0020965723784 -0.0011796121296 -0.00015291763461 0.00096163031678 0.0021355267526 0.003334068571 0.0045172576163 0.0056412419604 
0.006660313259 0.007529415614 0.0082070421644 0.0086583057803 0.0088578829693 0.0087924657951 0.0084623391372 0.007881752029 0.0070778824763 
0.0060883944647 0.0049578173614 0.0037331834678 0.0024594789594 0.0011754564703 0.0029727644883 0.0019801550432 0.0011497845527 0.00045250167773 
-0.0001421864904 -0.00066291423998 -0.0011347650952 -0.0015785827156 -0.0020107692087 -0.0024432969844 -0.0028838844425 -0.0033363203565 -0.0038008583276 
-0.0042745940942 -0.0047517974926 -0.0052242185633 -0.0056813900579 -0.0061109362755 -0.0064988977037 -0.0068300885722 -0.007088507918 -0.0072578216327 
-0.0073219264411 -0.0072656009158 -0.0070752490911 -0.0067397610725 -0.006251599524 -0.0055941353192 -0.0047772191902 -0.0038068515655 -0.0026964282944 
-0.0014670854181 -0.00014790423839 0.0012242688157 0.0026055345602 0.0039462929101 0.0051932968584 0.006292404715 0.0071919339146 0.0078464037377 
0.0082203286973 0.0082916136547 0.0080540390975 0.0075183464691 0.0067115650051 0.00567446346 0.0044573244667 0.0031145495878 0.0016988157182 
0.00025554191746 0.0014798069504 0.00047672180404 -0.00036456312035 -0.0010744499524 -0.0016846538682 -0.0022249784305 -0.0027216183122 -0.0031963827749 
-0.0036663884696 -0.0041440481094 -0.0046373007292 -0.0051499912491 -0.0056822784553 -0.0062310012504 -0.0067899991552 -0.0073504062178 -0.0079009312086 
-0.0084281341748 -0.0089167162338 -0.0093498458186 -0.0097095452572 -0.0099771581427 -0.010133912647 -0.010161591821 -0.010043320799 -0.009764479838 
-0.009313731818 -0.0086729962506 -0.0078436130426 -0.0068287930229 -0.0056394343362 -0.0042951026142 -0.0028246560828 -0.001266419995 0.00033223256599 
0.0019160380927 0.0034238544981 0.0047915809082 0.0059559367382 0.00685890995 0.0074525154509 0.0077033349952 0.0075961820994 0.0071362028153 
0.0063488348203 0.0052773237589 0.0039779060834 0.0025132173088 0.00094483593854 -0.00067400569539 -0.00020412182832 -0.0012115501664 -0.0020593629779 
-0.0027788012641 -0.0034025257715 -0.0039613678927 -0.0044825431361 -0.0049887335138 -0.005497699945 -0.0060222895811 -0.0065707183139 -0.0071469723036 
-0.0077512072759 -0.0083801015429 -0.0090271650788 -0.0096830138985 -0.010335618311 -0.010970539909 -0.011571179962 -0.012119065806 -0.012594201922 
-0.012975509693 -0.013241375622 -0.013370324629 -0.013341831652 -0.013137278334 -0.012741060652 -0.012135008046 -0.011308697694 -0.010262200879 
-0.0090028137137 -0.0075474557043 -0.00592372019 -0.0041704744872 -0.0023378377668 -0.00048634228945 0.0013149053865 0.0029911934797 0.004466329714 
0.0056677844865 0.0065325011071 0.007012781522 0.0070814395564 0.006735294414 0.0059961352683 0.00490857775 0.0035347451074 0.0019463343863 
0.00021518003411 -0.0015963102131 -0.0020777998131 -0.003083728008 -0.0039338208708 -0.0046597476192 -0.0052948593662 -0.0058708569071 -0.0064158457697 
-0.006953278574 -0.0075015282522 -0.0080739236328 -0.0086790528457 -0.0093211557696 -0.010000505871 -0.010713750292 -0.01145420242 -0.012212087926 
-0.012974754091 -0.013726861757 -0.014450585618 -0.01512585189 -0.015730643244 -0.016241398819 -0.016633534445 -0.016882105742 -0.016962629942 
-0.016852059116 -0.016529818112 -0.015978506463 -0.015174296643 -0.014112934271 -0.012796888017 -0.011239186144 -0.0094648973875 -0.0075122178586 
-0.0054329520619 -0.0032921338777 -0.0011665245196 0.00085823939493 0.0026919770637 0.0042457287287 0.0054386533844 0.0062054383196 0.00650327071 
0.00631717516 0.0056624766168 0.0045834111743 0.0031475113524 0.0014362353434 -0.0004668577754 -0.0024885918808 -0.0041379886607 -0.0051370382957 
-0.0059854145305 -0.0067148155061 -0.0073590163383 -0.007950388462 -0.0085177744679 -0.0090853231124 -0.0096720437902 -0.01029184505 -0.010953819638 
-0.011662608442 -0.01241876152 -0.013219060935 -0.014056788504 -0.014921936585 -0.015801374072 -0.016678988825 -0.017535833882 -0.018350309004 
-0.019098410386 -0.019754080334 -0.020289688084 -0.020676673018 -0.020886380326 -0.020891118942 -0.020665493215 -0.020188205151 -0.019428592953 
-0.018373203029 -0.017018448998 -0.0153721477 -0.013455421148 -0.011304327068 -0.0089709511177 -0.0065236426689 -0.0040460438103 -0.0016345709237 
0.00060591553617 0.0025683454059 0.0041513819402 0.0052684791946 0.0058569960996 0.0058858902815 0.0053603014817 0.0043215038673 0.0028413669987 
0.0010115500804 -0.0010711372133 -0.0033209219745 -0.0063795195285 -0.007367001663 -0.0082100718626 -0.0089400485298 -0.0095908209797 -0.010195194224 
-0.010782605723 -0.011377881507 -0.012000756226 -0.012665869337 -0.013382997967 -0.014157379711 -0.014990045886 -0.015878117832 -0.016815042079 
-0.017790761975 -0.018791837913 -0.01980153738 -0.020799923427 -0.021763975161 -0.022667775361 -0.023482800512 -0.024178349847 -0.024722151329 
-0.025081183305 -0.025222754608 -0.025115912982 -0.024733377438 -0.024044145996 -0.023019218023 -0.021648049272 -0.019931955184 -0.01788659846 
-0.015544222821 -0.012955463173 -0.010190358469 -0.0073381288379 -0.0045052523352 -0.0018114149376 0.00061694476913 0.0026554761722 0.0041926535892 