# vtk DataFile Version 4.1
vtk output
ASCII
DATASET STRUCTURED_GRID
DIMENSIONS 51 51 1
POINTS 2601 float
0 0 0 0.02 0 0 0.04 0 0 
0.06 0 0 0.08 0 0 0.1 0 0 
0.12 0 0 0.14 0 0 0.16 0 0 
0.18 0 0 0.2 0 0 0.22 0 0 
0.24 0 0 0.26 0 0 0.28 0 0 
0.3 0 0 0.32 0 0 0.34 0 0 
0.36 0 0 0.38 0 0 0.4 0 0 
0.42 0 0 0.44 0 0 0.46 0 0 
0.48 0 0 0.5 0 0 0.52 0 0 
0.54 0 0 0.56 0 0 0.58 0 0 
0.6 0 0 0.62 0 0 0.64 0 0 
0.66 0 0 0.68 0 0 0.7 0 0 
0.72 0 0 0.74 0 0 0.76 0 0 
0.78 0 0 0.8 0 0 0.82 0 0 
0.84 0 0 0.86 0 0 0.88 0 0 
0.9 0 0 0.92 0 0 0.94 0 0 
0.96 0 0 0.98 0 0 1 0 0 
0 0.02 0 0.02 0.02 0 0.04 0.02 0 
0.06 0.02 0 0.08 0.02 0 0.1 0.02 0 
0.12 0.02 0 0.14 0.02 0 0.16 0.02 0 
0.18 0.02 0 0.2 0.02 0 0.22 0.02 0 
0.24 0.02 0 0.26 0.02 0 0.28 0.02 0 
0.3 0.02 0 0.32 0.02 0 0.34 0.02 0 
0.36 0.02 0 0.38 0.02 0 0.4 0.02 0 
0.42 0.02 0 0.44 0.02 0 0.46 0.02 0 
0.48 0.02 0 0.5 0.02 0 0.52 0.02 0 
0.54 0.02 0 0.56 0.02 0 0.58 0.02 0 
0.6 0.02 0 0.62 0.02 0 0.64 0.02 0 
0.66 0.02 0 0.68 0.02 0 0.7 0.02 0 
0.72 0.02 0 0.74 0.02 0 0.76 0.02 0 
0.78 0.02 0 0.8 0.02 0 0.82 0.02 0 
0.84 0.02 0 0.86 0.02 0 0.88 0.02 0 
0.9 0.02 0 0.92 0.02 0 0.94 0.02 0 
0.96 0.02 0 0.98 0.02 0 1 0.02 0 
0 0.04 0 0.02 0.04 0 0.04 0.04 0 
0.06 0.04 0 0.08 0.04 0 0.1 0.04 0 
0.12 0.04 0 0.14 0.04 0 0.16 0.04 0 
0.18 0.04 0 0.2 0.04 0 0.22 0.04 0 
0.24 0.04 0 0.26 0.04 0 0.28 0.04 0 
0.3 0.04 0 0.32 0.04 0 0.34 0.04 0 
0.36 0.04 0 0.38 0.04 0 0.4 0.04 0 
0.42 0.04 0 0.44 0.04 0 0.46 0.04 0 
0.48 0.04 0 0.5 0.04 0 0.52 0.04 0 
0.54 0.04 0 0.56 0.04 0 0.58 0.04 0 
0.6 0.04 0 0.62 0.04 0 0.64 0.04 0 
0.66 0.04 0 0.68 0.04 0 0.7 0.04 0 
0.72 0.04 0 0.74 0.04 0 0.76 0.04 0 
0.78 0.04 0 0.8 0.04 0 0.82 0.04 0 
0.84 0.04 0 0.86 0.04 0 0.88 0.04 0 
0.9 0.04 0 0.92 0.04 0 0.94 0.04 0 
0.96 0.04 0 0.98 0.04 0 1 0.04 0 
0 0.06 0 0.02 0.06 0 0.04 0.06 0 
0.06 0.06 0 0.08 0.06 0 0.1 0.06 0 
0.12 0.06 0 0.14 0.06 0 0.16 0.06 0 
0.18 0.06 0 0.2 0.06 0 0.22 0.06 0 
0.24 0.06 0 0.26 0.06 0 0.28 0.06 0 
0.3 0.06 0 0.32 0.06 0 0.34 0.06 0 
0.36 0.06 0 0.38 0.06 0 0.4 0.06 0 
0.42 0.06 0 0.44 0.06 0 0.46 0.06 0 
0.48 0.06 0 0.5 0.06 0 0.52 0.06 0 
0.54 0.06 0 0.56 0.06 0 0.58 0.06 0 
0.6 0.06 0 0.62 0.06 0 0.64 0.06 0 
0.66 0.06 0 0.68 0.06 0 0.7 0.06 0 
0.72 0.06 0 0.74 0.06 0 0.76 0.06 0 
0.78 0.06 0 0.8 0.06 0 0.82 0.06 0 
0.84 0.06 0 0.86 0.06 0 0.88 0.06 0 
0.9 0.06 0 0.92 0.06 0 0.94 0.06 0 
0.96 0.06 0 0.98 0.06 0 1 0.06 0 
0 0.08 0 0.02 0.08 0 0.04 0.08 0 
0.06 0.08 0 0.08 0.08 0 0.1 0.08 0 
0.12 0.08 0 0.14 0.08 0 0.16 0.08 0 
0.18 0.08 0 0.2 0.08 0 0.22 0.08 0 
0.24 0.08 0 0.26 0.08 0 0.28 0.08 0 
0.3 0.08 0 0.32 0.08 0 0.34 0.08 0 
0.36 0.08 0 0.38 0.08 0 0.4 0.08 0 
0.42 0.08 0 0.44 0.08 0 0.46 0.08 0 
0.48 0.08 0 0.5 0.08 0 0.52 0.08 0 
0.54 0.08 0 0.56 0.08 0 0.58 0.08 0 
0.6 0.08 0 0.62 0.08 0 0.64 0.08 0 
0.66 0.08 0 0.68 0.08 0 0.7 0.08 0 
0.72 0.08 0 0.74 0.08 0 0.76 0.08 0 
0.78 0.08 0 0.8 0.08 0 0.82 0.08 0 
0.84 0.08 0 0.86 0.08 0 0.88 0.08 0 
0.9 0.08 0 0.92 0.08 0 0.94 0.08 0 
0.96 0.08 0 0.98 0.08 0 1 0.08 0 
0 0.1 0 0.02 0.1 0 0.04 0.1 0 
0.06 0.1 0 0.08 0.1 0 0.1 0.1 0 
0.12 0.1 0 0.14 0.1 0 0.16 0.1 0 
0.18 0.1 0 0.2 0.1 0 0.22 0.1 0 
0.24 0.1 0 0.26 0.1 0 0.28 0.1 0 
0.3 0.1 0 0.32 0.1 0 0.34 0.1 0 
0.36 0.1 0 0.38 0.1 0 0.4 0.1 0 
0.42 0.1 0 0.44 0.1 0 0.46 0.1 0 
0.48 0.1 0 0.5 0.1 0 0.52 0.1 0 
0.54 0.1 0 0.56 0.1 0 0.58 0.1 0 
0.6 0.1 0 0.62 0.1 0 0.64 0.1 0 
0.66 0.1 0 0.68 0.1 0 0.7 0.1 0 
0.72 0.1 0 0.74 0.1 0 0.76 0.1 0 
0.78 0.1 0 0.8 0.1 0 0.82 0.1 0 
0.84 0.1 0 0.86 0.1 0 0.88 0.1 0 
0.9 0.1 0 0.92 0.1 0 0.94 0.1 0 
0.96 0.1 0 0.98 0.1 0 1 0.1 0 
0 0.12 0 0.02 0.12 0 0.04 0.12 0 
0.06 0.12 0 0.08 0.12 0 0.1 0.12 0 
0.12 0.12 0 0.14 0.12 0 0.16 0.12 0 
0.18 0.12 0 0.2 0.12 0 0.22 0.12 0 
0.24 0.12 0 0.26 0.12 0 0.28 0.12 0 
0.3 0.12 0 0.32 0.12 0 0.34 0.12 0 
0.36 0.12 0 0.38 0.12 0 0.4 0.12 0 
0.42 0.12 0 0.44 0.12 0 0.46 0.12 0 
0.48 0.12 0 0.5 0.12 0 0.52 0.12 0 
0.54 0.12 0 0.56 0.12 0 0.58 0.12 0 
0.6 0.12 0 0.62 0.12 0 0.64 0.12 0 
0.66 0.12 0 0.68 0.12 0 0.7 0.12 0 
0.72 0.12 0 0.74 0.12 0 0.76 0.12 0 
0.78 0.12 0 0.8 0.12 0 0.82 0.12 0 
0.84 0.12 0 0.86 0.12 0 0.88 0.12 0 
0.9 0.12 0 0.92 0.12 0 0.94 0.12 0 
0.96 0.12 0 0.98 0.12 0 1 0.12 0 
0 0.14 0 0.02 0.14 0 0.04 0.14 0 
0.06 0.14 0 0.08 0.14 0 0.1 0.14 0 
0.12 0.14 0 0.14 0.14 0 0.16 0.14 0 
0.18 0.14 0 0.2 0.14 0 0.22 0.14 0 
0.24 0.14 0 0.26 0.14 0 0.28 0.14 0 
0.3 0.14 0 0.32 0.14 0 0.34 0.14 0 
0.36 0.14 0 0.38 0.14 0 0.4 0.14 0 
0.42 0.14 0 0.44 0.14 0 0.46 0.14 0 
0.48 0.14 0 0.5 0.14 0 0.52 0.14 0 
0.54 0.14 0 0.56 0.14 0 0.58 0.14 0 
0.6 0.14 0 0.62 0.14 0 0.64 0.14 0 
0.66 0.14 0 0.68 0.14 0 0.7 0.14 0 
0.72 0.14 0 0.74 0.14 0 0.76 0.14 0 
0.78 0.14 0 0.8 0.14 0 0.82 0.14 0 
0.84 0.14 0 0.86 0.14 0 0.88 0.14 0 
0.9 0.14 0 0.92 0.14 0 0.94 0.14 0 
0.96 0.14 0 0.98 0.14 0 1 0.14 0 
0 0.16 0 0.02 0.16 0 0.04 0.16 0 
0.06 0.16 0 0.08 0.16 0 0.1 0.16 0 
0.12 0.16 0 0.14 0.16 0 0.16 0.16 0 
0.18 0.16 0 0.2 0.16 0 0.22 0.16 0 
0.24 0.16 0 0.26 0.16 0 0.28 0.16 0 
0.3 0.16 0 0.32 0.16 0 0.34 0.16 0 
0.36 0.16 0 0.38 0.16 0 0.4 0.16 0 
0.42 0.16 0 0.44 0.16 0 0.46 0.16 0 
0.48 0.16 0 0.5 0.16 0 0.52 0.16 0 
0.54 0.16 0 0.56 0.16 0 0.58 0.16 0 
0.6 0.16 0 0.62 0.16 0 0.64 0.16 0 
0.66 0.16 0 0.68 0.16 0 0.7 0.16 0 
0.72 0.16 0 0.74 0.16 0 0.76 0.16 0 
0.78 0.16 0 0.8 0.16 0 0.82 0.16 0 
0.84 0.16 0 0.86 0.16 0 0.88 0.16 0 
0.9 0.16 0 0.92 0.16 0 0.94 0.16 0 
0.96 0.16 0 0.98 0.16 0 1 0.16 0 
0 0.18 0 0.02 0.18 0 0.04 0.18 0 
0.06 0.18 0 0.08 0.18 0 0.1 0.18 0 
0.12 0.18 0 0.14 0.18 0 0.16 0.18 0 
0.18 0.18 0 0.2 0.18 0 0.22 0.18 0 
0.24 0.18 0 0.26 0.18 0 0.28 0.18 0 
0.3 0.18 0 0.32 0.18 0 0.34 0.18 0 
0.36 0.18 0 0.38 0.18 0 0.4 0.18 0 
0.42 0.18 0 0.44 0.18 0 0.46 0.18 0 
0.48 0.18 0 0.5 0.18 0 0.52 0.18 0 
0.54 0.18 0 0.56 0.18 0 0.58 0.18 0 
0.6 0.18 0 0.62 0.18 0 0.64 0.18 0 
0.66 0.18 0 0.68 0.18 0 0.7 0.18 0 
0.72 0.18 0 0.74 0.18 0 0.76 0.18 0 
0.78 0.18 0 0.8 0.18 0 0.82 0.18 0 
0.84 0.18 0 0.86 0.18 0 0.88 0.18 0 
0.9 0.18 0 0.92 0.18 0 0.94 0.18 0 
0.96 0.18 0 0.98 0.18 0 1 0.18 0 
0 0.2 0 0.02 0.2 0 0.04 0.2 0 
0.06 0.2 0 0.08 0.2 0 0.1 0.2 0 
0.12 0.2 0 0.14 0.2 0 0.16 0.2 0 
0.18 0.2 0 0.2 0.2 0 0.22 0.2 0 
0.24 0.2 0 0.26 0.2 0 0.28 0.2 0 
0.3 0.2 0 0.32 0.2 0 0.34 0.2 0 
0.36 0.2 0 0.38 0.2 0 0.4 0.2 0 
0.42 0.2 0 0.44 0.2 0 0.46 0.2 0 
0.48 0.2 0 0.5 0.2 0 0.52 0.2 0 
0.54 0.2 0 0.56 0.2 0 0.58 0.2 0 
0.6 0.2 0 0.62 0.2 0 0.64 0.2 0 
0.66 0.2 0 0.68 0.2 0 0.7 0.2 0 
0.72 0.2 0 0.74 0.2 0 0.76 0.2 0 
0.78 0.2 0 0.8 0.2 0 0.82 0.2 0 
0.84 0.2 0 0.86 0.2 0 0.88 0.2 0 
0.9 0.2 0 0.92 0.2 0 0.94 0.2 0 
0.96 0.2 0 0.98 0.2 0 1 0.2 0 
0 0.22 0 0.02 0.22 0 0.04 0.22 0 
0.06 0.22 0 0.08 0.22 0 0.1 0.22 0 
0.12 0.22 0 0.14 0.22 0 0.16 0.22 0 
0.18 0.22 0 0.2 0.22 0 0.22 0.22 0 
0.24 0.22 0 0.26 0.22 0 0.28 0.22 0 
0.3 0.22 0 0.32 0.22 0 0.34 0.22 0 
0.36 0.22 0 0.38 0.22 0 0.4 0.22 0 
0.42 0.22 0 0.44 0.22 0 0.46 0.22 0 
0.48 0.22 0 0.5 0.22 0 0.52 0.22 0 
0.54 0.22 0 0.56 0.22 0 0.58 0.22 0 
0.6 0.22 0 0.62 0.22 0 0.64 0.22 0 
0.66 0.22 0 0.68 0.22 0 0.7 0.22 0 
0.72 0.22 0 0.74 0.22 0 0.76 0.22 0 
0.78 0.22 0 0.8 0.22 0 0.82 0.22 0 
0.84 0.22 0 0.86 0.22 0 0.88 0.22 0 
0.9 0.22 0 0.92 0.22 0 0.94 0.22 0 
0.96 0.22 0 0.98 0.22 0 1 0.22 0 
0 0.24 0 0.02 0.24 0 0.04 0.24 0 
0.06 0.24 0 0.08 0.24 0 0.1 0.24 0 
0.12 0.24 0 0.14 0.24 0 0.16 0.24 0 
0.18 0.24 0 0.2 0.24 0 0.22 0.24 0 
0.24 0.24 0 0.26 0.24 0 0.28 0.24 0 
0.3 0.24 0 0.32 0.24 0 0.34 0.24 0 
0.36 0.24 0 0.38 0.24 0 0.4 0.24 0 
0.42 0.24 0 0.44 0.24 0 0.46 0.24 0 
0.48 0.24 0 0.5 0.24 0 0.52 0.24 0 
0.54 0.24 0 0.56 0.24 0 0.58 0.24 0 
0.6 0.24 0 0.62 0.24 0 0.64 0.24 0 
0.66 0.24 0 0.68 0.24 0 0.7 0.24 0 
0.72 0.24 0 0.74 0.24 0 0.76 0.24 0 
0.78 0.24 0 0.8 0.24 0 0.82 0.24 0 
0.84 0.24 0 0.86 0.24 0 0.88 0.24 0 
0.9 0.24 0 0.92 0.24 0 0.94 0.24 0 
0.96 0.24 0 0.98 0.24 0 1 0.24 0 
0 0.26 0 0.02 0.26 0 0.04 0.26 0 
0.06 0.26 0 0.08 0.26 0 0.1 0.26 0 
0.12 0.26 0 0.14 0.26 0 0.16 0.26 0 
0.18 0.26 0 0.2 0.26 0 0.22 0.26 0 
0.24 0.26 0 0.26 0.26 0 0.28 0.26 0 
0.3 0.26 0 0.32 0.26 0 0.34 0.26 0 
0.36 0.26 0 0.38 0.26 0 0.4 0.26 0 
0.42 0.26 0 0.44 0.26 0 0.46 0.26 0 
0.48 0.26 0 0.5 0.26 0 0.52 0.26 0 
0.54 0.26 0 0.56 0.26 0 0.58 0.26 0 
0.6 0.26 0 0.62 0.26 0 0.64 0.26 0 
0.66 0.26 0 0.68 0.26 0 0.7 0.26 0 
0.72 0.26 0 0.74 0.26 0 0.76 0.26 0 
0.78 0.26 0 0.8 0.26 0 0.82 0.26 0 
0.84 0.26 0 0.86 0.26 0 0.88 0.26 0 
0.9 0.26 0 0.92 0.26 0 0.94 0.26 0 
0.96 0.26 0 0.98 0.26 0 1 0.26 0 
0 0.28 0 0.02 0.28 0 0.04 0.28 0 
0.06 0.28 0 0.08 0.28 0 0.1 0.28 0 
0.12 0.28 0 0.14 0.28 0 0.16 0.28 0 
0.18 0.28 0 0.2 0.28 0 0.22 0.28 0 
0.24 0.28 0 0.26 0.28 0 0.28 0.28 0 
0.3 0.28 0 0.32 0.28 0 0.34 0.28 0 
0.36 0.28 0 0.38 0.28 0 0.4 0.28 0 
0.42 0.28 0 0.44 0.28 0 0.46 0.28 0 
0.48 0.28 0 0.5 0.28 0 0.52 0.28 0 
0.54 0.28 0 0.56 0.28 0 0.58 0.28 0 
0.6 0.28 0 0.62 0.28 0 0.64 0.28 0 
0.66 0.28 0 0.68 0.28 0 0.7 0.28 0 
0.72 0.28 0 0.74 0.28 0 0.76 0.28 0 
0.78 0.28 0 0.8 0.28 0 0.82 0.28 0 
0.84 0.28 0 0.86 0.28 0 0.88 0.28 0 
0.9 0.28 0 0.92 0.28 0 0.94 0.28 0 
0.96 0.28 0 0.98 0.28 0 1 0.28 0 
0 0.3 0 0.02 0.3 0 0.04 0.3 0 
0.06 0.3 0 0.08 0.3 0 0.1 0.3 0 
0.12 0.3 0 0.14 0.3 0 0.16 0.3 0 
0.18 0.3 0 0.2 0.3 0 0.22 0.3 0 
0.24 0.3 0 0.26 0.3 0 0.28 0.3 0 
0.3 0.3 0 0.32 0.3 0 0.34 0.3 0 
0.36 0.3 0 0.38 0.3 0 0.4 0.3 0 
0.42 0.3 0 0.44 0.3 0 0.46 0.3 0 
0.48 0.3 0 0.5 0.3 0 0.52 0.3 0 
0.54 0.3 0 0.56 0.3 0 0.58 0.3 0 
0.6 0.3 0 0.62 0.3 0 0.64 0.3 0 
0.66 0.3 0 0.68 0.3 0 0.7 0.3 0 
0.72 0.3 0 0.74 0.3 0 0.76 0.3 0 
0.78 0.3 0 0.8 0.3 0 0.82 0.3 0 
0.84 0.3 0 0.86 0.3 0 0.88 0.3 0 
0.9 0.3 0 0.92 0.3 0 0.94 0.3 0 
0.96 0.3 0 0.98 0.3 0 1 0.3 0 
0 0.32 0 0.02 0.32 0 0.04 0.32 0 
0.06 0.32 0 0.08 0.32 0 0.1 0.32 0 
0.12 0.32 0 0.14 0.32 0 0.16 0.32 0 
0.18 0.32 0 0.2 0.32 0 0.22 0.32 0 
0.24 0.32 0 0.26 0.32 0 0.28 0.32 0 
0.3 0.32 0 0.32 0.32 0 0.34 0.32 0 
0.36 0.32 0 0.38 0.32 0 0.4 0.32 0 
0.42 0.32 0 0.44 0.32 0 0.46 0.32 0 
0.48 0.32 0 0.5 0.32 0 0.52 0.32 0 
0.54 0.32 0 0.56 0.32 0 0.58 0.32 0 
[...]
CELL_DATA 2500
FIELD FieldData 1
pressure 1 2500 double
0.0061813458994 0.0061158180486 0.0059275445201 0.0056541447704 0.0053355833007 0.0050052786491 0.0046888442587 0.0044049043361 0.0041663885184 
0.0039818201018 0.0038564657793 0.0037933112431 0.0037938582933 0.0038587396535 0.0039881405433 0.0041820198956 0.0044401431123 0.0047619634201 
0.0051464064627 0.0055916157367 0.0060947061272 0.0066515547653 0.007256640246 0.007902928333 0.0085817941977 0.0092829668251 0.0099941226521 
0.010702046039 0.01139281439 0.012051908522 0.012664634174 0.013216646265 0.013694541195 0.014086483082 0.014382827897 0.014576708069 
0.014664540663 0.014646426155 0.014526412618 0.014312611553 0.014017165902 0.013656086341 0.013248985429 0.012818745158 0.012391150303 
0.011994388925 0.011658289118 0.01141239259 0.01128078749 0.011268380094 0.0062507391406 0.0061854028774 0.0060230961008 0.0057939266512 
0.0055280326464 0.0052518297345 0.0049864195869 0.0047475704353 0.004546479913 0.0043907784373 0.004285495693 0.0042338782248 0.0042380221967 
0.0042993120686 0.0044186713799 0.0045966497942 0.0048333871866 0.0051285020365 0.005480944987 0.0058888453582 0.0063493648844 0.0068585639019 
0.0074112826924 0.0080010431884 0.0086199817638 0.0092588363525 0.0099060444393 0.010549647223 0.011177088075 0.011775290938 0.012331075278 
0.012831642031 0.01326511111 0.013621083375 0.013891195738 0.014069635916 0.014153583515 0.014143547724 0.01404357872 0.01386133946 
0.013608036212 0.01329821734 0.012949457669 0.012581944791 0.012217964749 0.011881232664 0.011595873229 0.011384847926 0.011267322702 
0.011255962884 0.0064468886254 0.0063481010144 0.0061803990753 0.0059671700072 0.0057306582386 0.0054901732843 0.0052612610061 0.0050558131392 
0.0048826542931 0.0047482366591 0.004657264471 0.0046131911026 0.0046185771122 0.0046753147117 0.0047847394134 0.0049476612438 0.0051643484577 
0.0054344848146 0.0057571066686 0.0061305180024 0.0065521819173 0.0070185939982 0.0075251519178 0.0080660418921 0.0086341669531 0.0092211457305 
0.0098159123179 0.010407514408 0.010984417095 0.011534592983 0.012045924083 0.012506662256 0.012905932998 0.013234259239 0.013484076296 
0.013650205796 0.013730256062 0.013724919664 0.013638144893 0.013477166946 0.013252395186 0.012977162916 0.012667353423 0.01234091697 
0.012017284054 0.011716659924 0.011459158221 0.011263809155 0.011147666455 0.011126166049 0.0067305803674 0.006576043566 0.0063829195327 
0.0061665229153 0.0059412729908 0.0057197726586 0.0055124917002 0.0053278985792 0.0051727441732 0.0050523533479 0.0049708884155 0.0049315768348 
0.0049368921509 0.0049886825732 0.0050882546554 0.0052364252124 0.0054335475721 0.0056795057376 0.0059736654332 0.0063147773932 0.0067008405495 
0.0071289444676 0.007595116753 0.0080942010211 0.0086197887745 0.0091642239407 0.0097168046224 0.010267342974 0.010805034302 0.011318565693 
0.01179650091 0.012227724048 0.012601926695 0.01291011562 0.01314511181 0.013302007741 0.013378549211 0.013375410846 0.013296340343 
0.013148155645 0.012940590246 0.012685992885 0.012398897653 0.012095486157 0.011792964514 0.011508877724 0.011260394311 0.011063651817 
0.010933374367 0.01088320925 0.007063647155 0.006843213812 0.0066120182627 0.0063778066177 0.006148408698 0.0059311775465 0.0057327059477 
0.0055587064069 0.0054139599057 0.0053023375066 0.0052268991074 0.005190037602 0.0051936240017 0.0052391260696 0.0053276929702 0.0054602046237 
0.0056372791182 0.0058592276948 0.006125953664 0.0064368042759 0.0067903955965 0.0071844351763 0.0076155655526 0.0080792468782 0.0085696928678 
0.0090798698937 0.0095993944705 0.010118620974 0.010627239399 0.011114367393 0.011568922522 0.011980059764 0.01233765731 0.012632826195 
0.012858412747 0.013009458662 0.013083582727 0.013081250532 0.013005904605 0.012863937238 0.012664500349 0.012419160089 0.012141416799 
0.011846121099 0.011548824234 0.011265106712 0.011009937572 0.010797133524 0.010639004787 0.010546207972 0.0074142517146 0.0071235586322 
0.006845471865 0.0065822193911 0.0063369943791 0.0061133594358 0.0059147942114 0.005744372151 0.0056046002635 0.0054974310014 0.0054243928784 
0.0053867567583 0.0053856750736 0.0054222693768 0.0054976651024 0.0056129763011 0.0057692390993 0.005967294266 0.0062076280809 0.0064901885334 
0.0068141962091 0.0071779665678 0.0075787559082 0.0080126410739 0.0084744424065 0.0089576991001 0.0094523523379 0.0099490782541 0.010437862215 
0.01090800645 0.011348497821 0.01174844902 0.01209759467 0.012386816173 0.012608662283 0.012757827863 0.012831551742 0.012829896391 
0.012755878491 0.012615430052 0.012417183396 0.012172089385 0.011892894286 0.01159351438 0.011288357847 0.0109916486 0.010716805547 
0.010475919343 0.010279330398 0.010135191249 0.0077545196171 0.0073913873704 0.0070607826221 0.0067615047207 0.0064934573773 0.0062570401379 
0.0060526978185 0.005880670658 0.0057409710402 0.0056335217693 0.0055583458001 0.0055157177856 0.0055062405916 0.0055308501513 0.0055907641655 
0.0056873856248 0.0058221668927 0.0059964421382 0.0062112403077 0.0064670911496 0.0067638335168 0.0071004321728 0.0074748091192 0.0078836986929 
0.0083225386166 0.0087854103857 0.0092626142138 0.0097449185319 0.010222435329 0.010684443803 0.011119759046 0.011517182599 0.0118660159 
0.012156609576 0.012380913918 0.012532990405 0.012609441446 0.012609716641 0.012536260415 0.012394477087 0.012192504957 0.011940809686 
0.011651626216 0.011338295323 0.011014552908 0.010693833483 0.010388641092 0.010110015928 0.0098670733131 0.0096665008966 0.0080593006667 
0.0076235261153 0.0072383800663 0.0069002170553 0.0066059962051 0.0063529668992 0.0061384804889 0.0059599943633 0.005815230338 0.0057023809437 
0.0056202668358 0.0055684033678 0.0055469838288 0.0055568043998 0.0055991499558 0.005675649602 0.0057881070177 0.0059383126568 0.0061278452562 
0.0063578669387 0.0066289137141 0.0069406845975 0.0072918374023 0.0076798049848 0.0081006484729 0.0085489635431 0.009015479277 0.0094908281617 
0.0099651198803 0.010427447386 0.010866256489 0.011269806975 0.011626707189 0.01192649481 0.012160227737 0.012321042107 0.012404630223 
0.012409591658 0.012337617101 0.012193476203 0.011984797996 0.011721653573 0.011415972667 0.011080845734 0.010729776702 0.01037595434 
0.010031598861 0.0097074110424 0.0094121012985 0.0091519083074 0.0083067644382 0.0078004781506 0.00736165535 0.0069842082697 0.0066620880715 
0.0063894521539 0.0061608140151 0.0059712568765 0.0058166563101 0.0056938406652 0.0056006569917 0.0055359540357 0.0054995106847 0.0054919298085 
0.005514504015 0.0055690541345 0.0056577430559 0.0057828702581 0.0059466509516 0.0061509809422 0.0063971892069 0.0066857849129 0.007016211698 
0.0073866261637 0.0077937178478 0.0082325858763 0.0086945204036 0.0091698086603 0.0096484768807 0.010119313623 0.010570236444 0.010988762399 
0.011362565896 0.011680096849 0.011931221803 0.012107842085 0.012204437166 0.012218480883 0.012150683579 0.01200502516 0.011788562667 
0.011511019325 0.011184187178 0.010821198641 0.010435738236 0.010041269676 0.0096503417042 0.0092740062856 0.0089213363666 0.0085989746196 
0.0084785606832 0.0079054324259 0.0074150204551 0.0069986388485 0.0066473675442 0.0063526246431 0.0061065500408 0.0059022929063 0.0057341982499 
0.0055978926078 0.0054902917593 0.0054095599583 0.0053550369366 0.0053271327448 0.0053271852877 0.0053572799566 0.0054200369199 0.0055183732339 
0.0056552440801 0.0058333658551 0.0060549265496 0.00632129355 0.0066327332349 0.0069881583134 0.0073849178553 0.0078186434996 0.0082813996694 
0.0087629485038 0.0092531981558 0.0097405551257 0.010212282632 0.010654977846 0.011055153554 0.011399897901 0.011677574325 0.011878513148 
0.011995638654 0.012024973084 0.011965962796 0.011821583307 0.011598199248 0.011305180567 0.010954304866 0.010559002695 0.01013352216 
0.0096920958119 0.0092481826078 0.0088138289276 0.0083991489283 0.0080118742916 0.0085586321466 0.0079225880887 0.007382762446 0.0069280273688 
0.0065469438151 0.0062285821696 0.0059630314044 0.0057417009558 0.0055574788682 0.0054047976179 0.0052796462672 0.0051795453996 0.0051034810304 
0.005051787745 0.0050259786435 0.005028529296 0.0050626271028 0.0051318951992 0.0052400958383 0.0053908174905 0.0055871524618 0.0058313749478 
0.0061246318782 0.006466659815 0.0068555415006 0.0072875164157 0.0077557171765 0.0082492354015 0.0087578691691 0.0092696043649 0.0097709570211 
0.010247452124 0.01068422661 0.0110667321 0.011381500122 0.01161691986 0.011763968334 0.011816827658 0.011773325316 0.011635143341 
0.011407761461 0.011100126177 0.010724069678 0.010293533997 0.0098236802933 0.0093299744943 0.0088273336205 0.0083293907204 0.0078478945143 
0.0073922118738 0.0085318245892 0.0078365405496 0.0072495850814 0.0067576815721 0.0063471172719 0.0060047705191 0.0057187375591 0.0054786865908 
0.0052760474182 0.005104105978 0.0049580361208 0.0048348729039 0.0047334208892 0.0046540966373 0.0045987152545 0.004570235863 0.0045724786948 
0.0046098208459 0.0046868738446 0.0048081465071 0.0049776984972 0.0051987921785 0.0054735526273 0.0058026479411 0.006185005409 0.0066175841644 
0.0070949610713 0.0076054477934 0.0081387878871 0.008682554563 0.0092224646404 0.0097428502071 0.01022727642 0.010659284839 0.011023227816 
0.011305144123 0.011493612568 0.011580511018 0.011561605821 0.011436903722 0.011210716143 0.010891413534 0.010490882765 0.010023737438 
0.0095063623545 0.0089558916711 0.0083892192398 0.0078221173057 0.0072685001409 0.0067398221268 0.0083835006714 0.0076328051747 0.007001597317 
0.0064745535855 0.0060356835673 0.005669628626 0.0053624539211 0.0051021017209 0.0048786365872 0.0046843588388 0.00451382058 0.0043637565392 
0.0042329388557 0.0041219707932 0.0040330372592 0.0039696262453 0.0039362286381 0.0039380184594 0.0039805140952 0.0040692224378 0.0042092694227 
0.0044050226043 0.004659714465 0.0049750789913 0.0053510193361 0.0057853296915 0.0062745682016 0.0068061360828 0.0073698610564 0.0079529720044 
0.008540385761 0.0091151617637 0.009659123599 0.010153636002 0.010580508764 0.010922980081 0.011166714042 0.011300732501 0.011318193862 
0.011216933798 0.010999697581 0.010674021262 0.010251757146 0.0097482822781 0.0091814690901 0.0085705257713 0.0079348221139 0.0072928012046 
0.0066610411798 0.0060534846431 0.0081000268728 0.0072983874791 0.0066264973356 0.0060668758584 0.0056011618914 0.0052117303494 0.0048826671373 
0.0046003172895 0.0043535580728 0.0041338908717 0.0039354054468 0.0037546503868 0.003590436933 0.0034435992896 0.0033167269735 0.0032138759721 
0.0031402594741 0.0031019167588 0.0031053597527 0.0031571982038 0.0032637455356 0.0034306098103 0.0036622778091 0.0039617048229 0.0043299285764 
0.0047657303562 0.0052681305682 0.0058237285849 0.0064226289044 0.0070518407895 0.0076955386074 0.0083354813892 0.008951619359 0.0095228912737 
0.010028193027 0.010447474849 0.010762901632 0.01095999017 0.011028622461 0.010963829645 0.010766250364 0.010442192615 0.010003268381 
0.0094656207637 0.008848815405 0.0081745105176 0.0074650421219 0.0067420566679 0.0060252928934 0.0053315683564 0.0076692243449 0.0068217292086 
0.0061130682748 0.0055235095422 0.0050323382791 0.0046197615007 0.0042680369178 0.0039620804185 0.0036897336122 0.0034418125131 0.0032120163293 
0.0029967495376 0.002794893404 0.0026075484708 0.0024377565695 0.0022902029283 0.0021708962854 0.0020868253199 0.0020455908959 0.0020550138716 
0.0021227188155 0.0022556963973 0.0024598507405 0.0027395425181 0.0030971447217 0.0035326411218 0.0040477127134 0.0046288074158 0.0052664866201 
0.005947711146 0.0066560396951 0.0073719720151 0.0080735096025 0.0087369516987 0.0093379165555 0.0098525525922 0.01025887665 0.010538148749 
0.010676169021 0.010664368075 0.010500562499 0.010189267146 0.0097414962801 0.0091740434486 0.008508296302 0.0077687044063 0.0069810607711 
0.0061707703946 0.0053612583055 0.0045726235186 0.0070803290694 0.0061923530286 0.0054508629798 0.0048339493426 0.0043186900701 0.003883286383 
0.0035083139261 0.0031773706763 0.0028773344513 0.0025983772728 0.002333835571 0.0020800005211 0.0018358666964 0.001602857149 0.0013845300306 
0.0011862664964 0.0010149386114 0.000878556008 0.00078588943789 0.00074606824922 0.00076814936281 0.00086065786169 0.0010311025085 0.0012854725088 
0.0016277216192 0.0020592361237 0.0025843187862 0.0031906252223 0.0038691746769 0.0046071177412 0.0053876249111 0.0061900739027 0.0069905243365 
0.0077624833058 0.008477958728 0.0091087759478 0.0096281021639 0.010012087552 0.010241496936 0.010303178079 0.010191200134 0.0099075058957 
0.0094619588471 0.0088717301414 0.0081600537883 0.0073544653472 0.0064847109906 0.0055805518503 0.0046696831343 0.0037759427954 0.006323776384 
0.0054008030843 0.0046304766643 0.0039888954049 0.0034510963291 0.0029934026382 0.0025947940579 0.0022376042666 0.0019077834189 0.0015948936246 
0.0012919509924 0.00099518640795 0.00070376608446 0.00041949121306 0.00014648385913 -0.00010913894571 -0.00033960363559 -0.00053583415626 -0.00068782721414 
-0.00078505571204 -0.00081690613665 -0.00077315268952 -0.00064446725113 -0.00042296050572 -0.00010275042331 0.00031942116338 0.00084851372471 0.0014779643692 
0.0021976111015 0.0029953282056 0.0038542928118 0.0047530266462 0.0056657653641 0.0065631626524 0.0074133455083 0.0081833160555 0.0088406595124 
0.0093554730701 0.0097023817771 0.0098624625798 0.009824866695 0.0095879246449 0.0091595470134 0.0085568015437 0.0078046484532 0.0069339346381 
0.0059788585711 0.0049741932211 0.0039525735622 0.0029421147793 0.0053912559572 0.004438978497 0.0036440385577 0.0029807155685 0.0024221282606 
0.0019428105876 0.0015202143474 0.0011354689062 0.00077365694175 0.00042379318789 7.8634649607e-05 -0.00026559534576 -0.00060952135893 -0.00095094379459 
-0.0012851697622 -0.0016053439758 -0.0019027825995 -0.0021673173885 -0.0023876604957 -0.0025518008878 -0.0026474413333 -0.0026624816175 -0.0025855487483 
-0.0024065664931 -0.0021173386033 -0.0017120645713 -0.0011874893394 -0.0005393888257 0.00021913586586 0.0010774690084 0.0020193269248 0.003022773305 
0.0040604708771 0.0051002827502 0.0061062848006 0.0070402161073 0.0078633517368 0.0085387275373 0.0090335825902 0.0093218189971 0.0093862229636 
0.009220161134 0.0088284778443 0.0082273838285 0.0074432453774 0.0065103397627 0.0054678064942 0.0043561535329 0.0032137358922 0.0020735943003 
0.0042760524822 0.0033005018698 0.0024854433507 0.0018034735324 0.0012259132865 0.00072562174797 0.00027863261766 -0.0001350269131 -0.00053105308429 
-0.00092091006895 -0.0013120566765 -0.0017082607475 -0.0021099450839 -0.0025145352494 -0.0029167965803 -0.003309159215 -0.0036820379714 -0.0040241589721 
-0.0043229073604 -0.004564710217 -0.004735466848 -0.004821035911 -0.0048077846523 -0.0046831990635 -0.0044365441811 -0.0040595503453 -0.0035471007727 
-0.0028889544843 -0.0020969499559 -0.001179978369 -0.00015326611559 0.00096130524502 0.0021352294465 0.0033338019492 0.0045170234368 0.0056410411113 
0.006660145694 0.0075292800271 0.0082069357056 0.0086582240192 0.0088578201898 0.0087924155059 0.0084622946115 0.0078817067551 0.0070778305069 
0.0060883307133 0.0049577377657 0.0037330850504 0.0024593596747 0.0011753150254 0.0029733673011 0.001980845826 0.001150288267 0.00045277856588 
-0.00014197496369 -0.00066260902644 -0.0011343517293 -0.0015781570564 -0.0020104208307 -0.0024430485986 -0.0028837142997 -0.0033362045102 -0.003800785432 
-0.0042745596568 -0.0047517999825 -0.0052242614746 -0.0056814818955 -0.0061110855591 -0.0064991076765 -0.0068303561182 -0.0070888264801 -0.0072581846974 
-0.0073223285856 -0.0072660364536 -0.0070757107199 -0.0067402402539 -0.0062520880568 -0.0055946253088 -0.004777703844 -0.0038073241022 -0.002696882001 
-0.0014675141671 -0.00014830286546 0.0012239044988 0.0026052078427 0.0039460060115 0.0051930504908 0.0062921977095 0.0071917631433 0.0078462643364 
0.0082202145104 0.0082915177395 0.0080539541651 0.0075182652579 0.0067114806403 0.0056743698126 0.004457216414 0.0031144231792 0.0016986680812 
0.00025537107984 0.0014804267548 0.00047728605324 -0.00036420116506 -0.001074201267 -0.0016843583801 -0.0022245840705 -0.0027212046171 -0.0031960539358 
-0.003666183244 -0.004143941144 -0.0046372512152 -0.0051499738148 -0.005682283978 -0.0062310296867 -0.0067900574152 -0.0073505072823 -0.0079010896042 
-0.0084283598364 -0.0089170113102 -0.0093502059448 -0.0097099631691 -0.0099776263586 -0.010134423725 -0.010162137471 -0.010043891896 -0.0097650676134 
-0.0093143288341 -0.0086735955536 -0.0078442079936 -0.0068293763144 -0.0056399984398 -0.0042956403124 -0.0028251607815 -0.0012668859416 0.00033180994432 
0.0019156617334 0.0034235253278 0.0047912977621 0.0059556965319 0.0068587079525 0.0074523456015 0.0077031902161 0.0075960545991 0.0071360844695 
0.0063487176385 0.0052772003873 0.0039777702054 0.0025130639155 0.00094466126887 -0.00067420435691 -0.00020354431167 -0.00121111464 -0.0020590938561 
-0.0027785575045 -0.0034022065751 -0.0039610050475 -0.0044822344475 -0.0049885370965 -0.0054976045991 -0.006022254552 -0.0065707140174 -0.00714698927 
-0.00775124799 -0.0083801744159 -0.0090272826717 -0.0096831903487 -0.010335864891 -0.0109708615 -0.011571574685 -0.012119527446 -0.012594722863 
-0.012976082225 -0.01324199163 -0.013370975294 -0.013342508199 -0.013137973068 -0.012741767134 -0.01213571844 -0.0113094056 -0.010262897639 
-0.0090034904692 -0.0075481038076 -0.0059243316777 -0.0041710426121 -0.0023383574579 -0.00048681040453 0.0013144900255 0.0029908302036 0.0044660161151 
0.0056675164561 0.0065322729065 0.0070125859479 0.0070812682317 0.0067351382752 0.0059959851671 0.0049084250944 0.0035345823706 0.0019461554587 
0.00021498019468 -0.0015965345087 -0.0020773292364 -0.0030834409408 -0.0039336385014 -0.0046595306857 -0.0052945736119 -0.0058705706192 -0.006415631056 
-0.0069531502916 -0.0075014612841 -0.0080738941913 -0.00867905503 -0.0093211951295 -0.010000590879 -0.010713889663 -0.011454404767 -0.012212360549 
-0.01297510112 -0.013727283117 -0.014451077657 -0.015126409116 -0.015731259626 -0.016242067806 -0.01663424851 -0.016882856635 -0.016963409615 
-0.016852860241 -0.016530633615 -0.015979328584 -0.015175116867 -0.014113742778 -0.012797674693 -0.011239941319 -0.0094656125465 -0.0075128861136 
-0.0054335682553 -0.0032926944716 -0.0011670275289 0.00085779434716 0.0026915885634 0.0042453933647 0.0054383657032 0.0062051909799 0.0065030548294 
0.0063169808814 0.0056622937797 0.0045832300395 0.0031473231957 0.0014360328995 -0.00046708027692 -0.0024888389099 -0.0041376902963 -0.0051369027898 
-0.0059852983964 -0.0067146212837 -0.0073587662083 -0.0079501560703 -0.0085176022838 -0.0090852096667 -0.009671976543 -0.010291822865 -0.010953850641 
-0.011662700895 -0.012418920167 -0.013219287914 -0.014057085001 -0.014922303586 -0.015801812038 -0.016679497057 -0.017536410416 -0.018350950912 
-0.01909911369 -0.019754839498 -0.020290495912 -0.020677521381 -0.020887261048 -0.020892024028 -0.02066641443 -0.020189133285 -0.019429519203 
-0.018374116035 -0.017019337914 -0.01537300276 -0.013456234107 -0.011305091159 -0.0089716607778 -0.006524293429 -0.0040466325168 -0.0016350960936 
0.00060545336103 0.002567943407 0.0041510349913 0.0052681800236 0.0058567356231 0.0058856581453 0.0053600867325 0.0043212957316 0.002841155571 
0.0010113268892 -0.0010713790717 -0.0033211879877 -0.006379413004 -0.007366973763 -0.0082099781753 -0.0089398607023 -0.0095906007652 -0.010195004693 
-0.010782468562 -0.01137779492 -0.012000721419 -0.012665895059 -0.013383092762 -0.014157547137 -0.014990285064 -0.015878426069 -0.016815417439 
-0.01779120448 -0.018792348948 -0.019802118315 -0.020800574618 -0.021764695369 -0.022668561199 -0.023483646178 -0.024179247579 -0.024723092414 
-0.025082158894 -0.02522375595 -0.025116931145 -0.024734403194 -0.024045167318 -0.023020223945 -0.021649029376 -0.019932900367 -0.017887500841 
-0.015545075322 -0.012956259353 -0.010191092813 -0.0073387972608 -0.0045058525918 -0.001811946901 0.00061647891144 0.0026550718683 0.0041923039955 