# vtk DataFile Version 4.1
vtk output
ASCII
DATASET STRUCTURED_GRID
DIMENSIONS 51 51 1
POINTS 2601 float
0 0 0 0.02 0 0 0.04 0 0 
0.06 0 0 0.08 0 0 0.1 0 0 
0.12 0 0 0.14 0 0 0.16 0 0 
0.18 0 0 0.2 0 0 0.22 0 0 
0.24 0 0 0.26 0 0 0.28 0 0 
0.3 0 0 0.32 0 0 0.34 0 0 
0.36 0 0 0.38 0 0 0.4 0 0 
0.42 0 0 0.44 0 0 0.46 0 0 
0.48 0 0 0.5 0 0 0.52 0 0 
0.54 0 0 0.56 0 0 0.58 0 0 
0.6 0 0 0.62 0 0 0.64 0 0 
0.66 0 0 0.68 0 0 0.7 0 0 
0.72 0 0 0.74 0 0 0.76 0 0 
0.78 0 0 0.8 0 0 0.82 0 0 
0.84 0 0 0.86 0 0 0.88 0 0 
0.9 0 0 0.92 0 0 0.94 0 0 
0.96 0 0 0.98 0 0 1 0 0 
0 0.02 0 0.02 0.02 0 0.04 0.02 0 
0.06 0.02 0 0.08 0.02 0 0.1 0.02 0 
0.12 0.02 0 0.14 0.02 0 0.16 0.02 0 
0.18 0.02 0 0.2 0.02 0 0.22 0.02 0 
0.24 0.02 0 0.26 0.02 0 0.28 0.02 0 
0.3 0.02 0 0.32 0.02 0 0.34 0.02 0 
0.36 0.02 0 0.38 0.02 0 0.4 0.02 0 
0.42 0.02 0 0.44 0.02 0 0.46 0.02 0 
0.48 0.02 0 0.5 0.02 0 0.52 0.02 0 
0.54 0.02 0 0.56 0.02 0 0.58 0.02 0 
0.6 0.02 0 0.62 0.02 0 0.64 0.02 0 
0.66 0.02 0 0.68 0.02 0 0.7 0.02 0 
0.72 0.02 0 0.74 0.02 0 0.76 0.02 0 
0.78 0.02 0 0.8 0.02 0 0.82 0.02 0 
0.84 0.02 0 0.86 0.02 0 0.88 0.02 0 
0.9 0.02 0 0.92 0.02 0 0.94 0.02 0 
0.96 0.02 0 0.98 0.02 0 1 0.02 0 
0 0.04 0 0.02 0.04 0 0.04 0.04 0 
0.06 0.04 0 0.08 0.04 0 0.1 0.04 0 
0.12 0.04 0 0.14 0.04 0 0.16 0.04 0 
0.18 0.04 0 0.2 0.04 0 0.22 0.04 0 
0.24 0.04 0 0.26 0.04 0 0.28 0.04 0 
0.3 0.04 0 0.32 0.04 0 0.34 0.04 0 
0.36 0.04 0 0.38 0.04 0 0.4 0.04 0 
0.42 0.04 0 0.44 0.04 0 0.46 0.04 0 
0.48 0.04 0 0.5 0.04 0 0.52 0.04 0 
0.54 0.04 0 0.56 0.04 0 0.58 0.04 0 
0.6 0.04 0 0.62 0.04 0 0.64 0.04 0 
0.66 0.04 0 0.68 0.04 0 0.7 0.04 0 
0.72 0.04 0 0.74 0.04 0 0.76 0.04 0 
0.78 0.04 0 0.8 0.04 0 0.82 0.04 0 
0.84 0.04 0 0.86 0.04 0 0.88 0.04 0 
0.9 0.04 0 0.92 0.04 0 0.94 0.04 0 
0.96 0.04 0 0.98 0.04 0 1 0.04 0 
0 0.06 0 0.02 0.06 0 0.04 0.06 0 
0.06 0.06 0 0.08 0.06 0 0.1 0.06 0 
0.12 0.06 0 0.14 0.06 0 0.16 0.06 0 
0.18 0.06 0 0.2 0.06 0 0.22 0.06 0 
0.24 0.06 0 0.26 0.06 0 0.28 0.06 0 
0.3 0.06 0 0.32 0.06 0 0.34 0.06 0 
0.36 0.06 0 0.38 0.06 0 0.4 0.06 0 
0.42 0.06 0 0.44 0.06 0 0.46 0.06 0 
0.48 0.06 0 0.5 0.06 0 0.52 0.06 0 
0.54 0.06 0 0.56 0.06 0 0.58 0.06 0 
0.6 0.06 0 0.62 0.06 0 0.64 0.06 0 
0.66 0.06 0 0.68 0.06 0 0.7 0.06 0 
0.72 0.06 0 0.74 0.06 0 0.76 0.06 0 
0.78 0.06 0 0.8 0.06 0 0.82 0.06 0 
0.84 0.06 0 0.86 0.06 0 0.88 0.06 0 
0.9 0.06 0 0.92 0.06 0 0.94 0.06 0 
0.96 0.06 0 0.98 0.06 0 1 0.06 0 
0 0.08 0 0.02 0.08 0 0.04 0.08 0 
0.06 0.08 0 0.08 0.08 0 0.1 0.08 0 
0.12 0.08 0 0.14 0.08 0 0.16 0.08 0 
0.18 0.08 0 0.2 0.08 0 0.22 0.08 0 
0.24 0.08 0 0.26 0.08 0 0.28 0.08 0 
0.3 0.08 0 0.32 0.08 0 0.34 0.08 0 
0.36 0.08 0 0.38 0.08 0 0.4 0.08 0 
0.42 0.08 0 0.44 0.08 0 0.46 0.08 0 
0.48 0.08 0 0.5 0.08 0 0.52 0.08 0 
0.54 0.08 0 0.56 0.08 0 0.58 0.08 0 
0.6 0.08 0 0.62 0.08 0 0.64 0.08 0 
0.66 0.08 0 0.68 0.08 0 0.7 0.08 0 
0.72 0.08 0 0.74 0.08 0 0.76 0.08 0 
0.78 0.08 0 0.8 0.08 0 0.82 0.08 0 
0.84 0.08 0 0.86 0.08 0 0.88 0.08 0 
0.9 0.08 0 0.92 0.08 0 0.94 0.08 0 
0.96 0.08 0 0.98 0.08 0 1 0.08 0 
0 0.1 0 0.02 0.1 0 0.04 0.1 0 
0.06 0.1 0 0.08 0.1 0 0.1 0.1 0 
0.12 0.1 0 0.14 0.1 0 0.16 0.1 0 
0.18 0.1 0 0.2 0.1 0 0.22 0.1 0 
0.24 0.1 0 0.26 0.1 0 0.28 0.1 0 
0.3 0.1 0 0.32 0.1 0 0.34 0.1 0 
0.36 0.1 0 0.38 0.1 0 0.4 0.1 0 
0.42 0.1 0 0.44 0.1 0 0.46 0.1 0 
0.48 0.1 0 0.5 0.1 0 0.52 0.1 0 
0.54 0.1 0 0.56 0.1 0 0.58 0.1 0 
0.6 0.1 0 0.62 0.1 0 0.64 0.1 0 
0.66 0.1 0 0.68 0.1 0 0.7 0.1 0 
0.72 0.1 0 0.74 0.1 0 0.76 0.1 0 
0.78 0.1 0 0.8 0.1 0 0.82 0.1 0 
0.84 0.1 0 0.86 0.1 0 0.88 0.1 0 
0.9 0.1 0 0.92 0.1 0 0.94 0.1 0 
0.96 0.1 0 0.98 0.1 0 1 0.1 0 
0 0.12 0 0.02 0.12 0 0.04 0.12 0 
0.06 0.12 0 0.08 0.12 0 0.1 0.12 0 
0.12 0.12 0 0.14 0.12 0 0.16 0.12 0 
0.18 0.12 0 0.2 0.12 0 0.22 0.12 0 
0.24 0.12 0 0.26 0.12 0 0.28 0.12 0 
0.3 0.12 0 0.32 0.12 0 0.34 0.12 0 
0.36 0.12 0 0.38 0.12 0 0.4 0.12 0 
0.42 0.12 0 0.44 0.12 0 0.46 0.12 0 
0.48 0.12 0 0.5 0.12 0 0.52 0.12 0 
0.54 0.12 0 0.56 0.12 0 0.58 0.12 0 
0.6 0.12 0 0.62 0.12 0 0.64 0.12 0 
0.66 0.12 0 0.68 0.12 0 0.7 0.12 0 
0.72 0.12 0 0.74 0.12 0 0.76 0.12 0 
0.78 0.12 0 0.8 0.12 0 0.82 0.12 0 
0.84 0.12 0 0.86 0.12 0 0.88 0.12 0 
0.9 0.12 0 0.92 0.12 0 0.94 0.12 0 
0.96 0.12 0 0.98 0.12 0 1 0.12 0 
0 0.14 0 0.02 0.14 0 0.04 0.14 0 
0.06 0.14 0 0.08 0.14 0 0.1 0.14 0 
0.12 0.14 0 0.14 0.14 0 0.16 0.14 0 
0.18 0.14 0 0.2 0.14 0 0.22 0.14 0 
0.24 0.14 0 0.26 0.14 0 0.28 0.14 0 
0.3 0.14 0 0.32 0.14 0 0.34 0.14 0 
0.36 0.14 0 0.38 0.14 0 0.4 0.14 0 
0.42 0.14 0 0.44 0.14 0 0.46 0.14 0 
0.48 0.14 0 0.5 0.14 0 0.52 0.14 0 
0.54 0.14 0 0.56 0.14 0 0.58 0.14 0 
0.6 0.14 0 0.62 0.14 0 0.64 0.14 0 
0.66 0.14 0 0.68 0.14 0 0.7 0.14 0 
0.72 0.14 0 0.74 0.14 0 0.76 0.14 0 
0.78 0.14 0 0.8 0.14 0 0.82 0.14 0 
0.84 0.14 0 0.86 0.14 0 0.88 0.14 0 
0.9 0.14 0 0.92 0.14 0 0.94 0.14 0 
0.96 0.14 0 0.98 0.14 0 1 0.14 0 
0 0.16 0 0.02 0.16 0 0.04 0.16 0 
0.06 0.16 0 0.08 0.16 0 0.1 0.16 0 
0.12 0.16 0 0.14 0.16 0 0.16 0.16 0 
0.18 0.16 0 0.2 0.16 0 0.22 0.16 0 
0.24 0.16 0 0.26 0.16 0 0.28 0.16 0 
0.3 0.16 0 0.32 0.16 0 0.34 0.16 0 
0.36 0.16 0 0.38 0.16 0 0.4 0.16 0 
0.42 0.16 0 0.44 0.16 0 0.46 0.16 0 
0.48 0.16 0 0.5 0.16 0 0.52 0.16 0 
0.54 0.16 0 0.56 0.16 0 0.58 0.16 0 
0.6 0.16 0 0.62 0.16 0 0.64 0.16 0 
0.66 0.16 0 0.68 0.16 0 0.7 0.16 0 
0.72 0.16 0 0.74 0.16 0 0.76 0.16 0 
0.78 0.16 0 0.8 0.16 0 0.82 0.16 0 
0.84 0.16 0 0.86 0.16 0 0.88 0.16 0 
0.9 0.16 0 0.92 0.16 0 0.94 0.16 0 
0.96 0.16 0 0.98 0.16 0 1 0.16 0 
0 0.18 0 0.02 0.18 0 0.04 0.18 0 
0.06 0.18 0 0.08 0.18 0 0.1 0.18 0 
0.12 0.18 0 0.14 0.18 0 0.16 0.18 0 
0.18 0.18 0 0.2 0.18 0 0.22 0.18 0 
0.24 0.18 0 0.26 0.18 0 0.28 0.18 0 
0.3 0.18 0 0.32 0.18 0 0.34 0.18 0 
0.36 0.18 0 0.38 0.18 0 0.4 0.18 0 
0.42 0.18 0 0.44 0.18 0 0.46 0.18 0 
0.48 0.18 0 0.5 0.18 0 0.52 0.18 0 
0.54 0.18 0 0.56 0.18 0 0.58 0.18 0 
0.6 0.18 0 0.62 0.18 0 0.64 0.18 0 
0.66 0.18 0 0.68 0.18 0 0.7 0.18 0 
0.72 0.18 0 0.74 0.18 0 0.76 0.18 0 
0.78 0.18 0 0.8 0.18 0 0.82 0.18 0 
0.84 0.18 0 0.86 0.18 0 0.88 0.18 0 
0.9 0.18 0 0.92 0.18 0 0.94 0.18 0 
0.96 0.18 0 0.98 0.18 0 1 0.18 0 
0 0.2 0 0.02 0.2 0 0.04 0.2 0 
0.06 0.2 0 0.08 0.2 0 0.1 0.2 0 
0.12 0.2 0 0.14 0.2 0 0.16 0.2 0 
0.18 0.2 0 0.2 0.2 0 0.22 0.2 0 
0.24 0.2 0 0.26 0.2 0 0.28 0.2 0 
0.3 0.2 0 0.32 0.2 0 0.34 0.2 0 
0.36 0.2 0 0.38 0.2 0 0.4 0.2 0 
0.42 0.2 0 0.44 0.2 0 0.46 0.2 0 
0.48 0.2 0 0.5 0.2 0 0.52 0.2 0 
0.54 0.2 0 0.56 0.2 0 0.58 0.2 0 
0.6 0.2 0 0.62 0.2 0 0.64 0.2 0 
0.66 0.2 0 0.68 0.2 0 0.7 0.2 0 
0.72 0.2 0 0.74 0.2 0 0.76 0.2 0 
0.78 0.2 0 0.8 0.2 0 0.82 0.2 0 
0.84 0.2 0 0.86 0.2 0 0.88 0.2 0 
0.9 0.2 0 0.92 0.2 0 0.94 0.2 0 
0.96 0.2 0 0.98 0.2 0 1 0.2 0 
0 0.22 0 0.02 0.22 0 0.04 0.22 0 
0.06 0.22 0 0.08 0.22 0 0.1 0.22 0 
0.12 0.22 0 0.14 0.22 0 0.16 0.22 0 
0.18 0.22 0 0.2 0.22 0 0.22 0.22 0 
0.24 0.22 0 0.26 0.22 0 0.28 0.22 0 
0.3 0.22 0 0.32 0.22 0 0.34 0.22 0 
0.36 0.22 0 0.38 0.22 0 0.4 0.22 0 
0.42 0.22 0 0.44 0.22 0 0.46 0.22 0 
0.48 0.22 0 0.5 0.22 0 0.52 0.22 0 
0.54 0.22 0 0.56 0.22 0 0.58 0.22 0 
0.6 0.22 0 0.62 0.22 0 0.64 0.22 0 
0.66 0.22 0 0.68 0.22 0 0.7 0.22 0 
0.72 0.22 0 0.74 0.22 0 0.76 0.22 0 
0.78 0.22 0 0.8 0.22 0 0.82 0.22 0 
0.84 0.22 0 0.86 0.22 0 0.88 0.22 0 
0.9 0.22 0 0.92 0.22 0 0.94 0.22 0 
0.96 0.22 0 0.98 0.22 0 1 0.22 0 
0 0.24 0 0.02 0.24 0 0.04 0.24 0 
0.06 0.24 0 0.08 0.24 0 0.1 0.24 0 
0.12 0.24 0 0.14 0.24 0 0.16 0.24 0 
0.18 0.24 0 0.2 0.24 0 0.22 0.24 0 
0.24 0.24 0 0.26 0.24 0 0.28 0.24 0 
0.3 0.24 0 0.32 0.24 0 0.34 0.24 0 
0.36 0.24 0 0.38 0.24 0 0.4 0.24 0 
0.42 0.24 0 0.44 0.24 0 0.46 0.24 0 
0.48 0.24 0 0.5 0.24 0 0.52 0.24 0 
0.54 0.24 0 0.56 0.24 0 0.58 0.24 0 
0.6 0.24 0 0.62 0.24 0 0.64 0.24 0 
0.66 0.24 0 0.68 0.24 0 0.7 0.24 0 
0.72 0.24 0 0.74 0.24 0 0.76 0.24 0 
0.78 0.24 0 0.8 0.24 0 0.82 0.24 0 
0.84 0.24 0 0.86 0.24 0 0.88 0.24 0 
0.9 0.24 0 0.92 0.24 0 0.94 0.24 0 
0.96 0.24 0 0.98 0.24 0 1 0.24 0 
0 0.26 0 0.02 0.26 0 0.04 0.26 0 
0.06 0.26 0 0.08 0.26 0 0.1 0.26 0 
0.12 0.26 0 0.14 0.26 0 0.16 0.26 0 
0.18 0.26 0 0.2 0.26 0 0.22 0.26 0 
0.24 0.26 0 0.26 0.26 0 0.28 0.26 0 
0.3 0.26 0 0.32 0.26 0 0.34 0.26 0 
0.36 0.26 0 0.38 0.26 0 0.4 0.26 0 
0.42 0.26 0 0.44 0.26 0 0.46 0.26 0 
0.48 0.26 0 0.5 0.26 0 0.52 0.26 0 
0.54 0.26 0 0.56 0.26 0 0.58 0.26 0 
0.6 0.26 0 0.62 0.26 0 0.64 0.26 0 
0.66 0.26 0 0.68 0.26 0 0.7 0.26 0 
0.72 0.26 0 0.74 0.26 0 0.76 0.26 0 
0.78 0.26 0 0.8 0.26 0 0.82 0.26 0 
0.84 0.26 0 0.86 0.26 0 0.88 0.26 0 
0.9 0.26 0 0.92 0.26 0 0.94 0.26 0 
0.96 0.26 0 0.98 0.26 0 1 0.26 0 
0 0.28 0 0.02 0.28 0 0.04 0.28 0 
0.06 0.28 0 0.08 0.28 0 0.1 0.28 0 
0.12 0.28 0 0.14 0.28 0 0.16 0.28 0 
0.18 0.28 0 0.2 0.28 0 0.22 0.28 0 
0.24 0.28 0 0.26 0.28 0 0.28 0.28 0 
0.3 0.28 0 0.32 0.28 0 0.34 0.28 0 
0.36 0.28 0 0.38 0.28 0 0.4 0.28 0 
0.42 0.28 0 0.44 0.28 0 0.46 0.28 0 
0.48 0.28 0 0.5 0.28 0 0.52 0.28 0 
0.54 0.28 0 0.56 0.28 0 0.58 0.28 0 
0.6 0.28 0 0.62 0.28 0 0.64 0.28 0 
0.66 0.28 0 0.68 0.28 0 0.7 0.28 0 
0.72 0.28 0 0.74 0.28 0 0.76 0.28 0 
0.78 0.28 0 0.8 0.28 0 0.82 0.28 0 
0.84 0.28 0 0.86 0.28 0 0.88 0.28 0 
0.9 0.28 0 0.92 0.28 0 0.94 0.28 0 
0.96 0.28 0 0.98 0.28 0 1 0.28 0 
0 0.3 0 0.02 0.3 0 0.04 0.3 0 
0.06 0.3 0 0.08 0.3 0 0.1 0.3 0 
0.12 0.3 0 0.14 0.3 0 0.16 0.3 0 
0.18 0.3 0 0.2 0.3 0 0.22 0.3 0 
0.24 0.3 0 0.26 0.3 0 0.28 0.3 0 
0.3 0.3 0 0.32 0.3 0 0.34 0.3 0 
0.36 0.3 0 0.38 0.3 0 0.4 0.3 0 
0.42 0.3 0 0.44 0.3 0 0.46 0.3 0 
0.48 0.3 0 0.5 0.3 0 0.52 0.3 0 
0.54 0.3 0 0.56 0.3 0 0.58 0.3 0 
0.6 0.3 0 0.62 0.3 0 0.64 0.3 0 
0.66 0.3 0 0.68 0.3 0 0.7 0.3 0 
0.72 0.3 0 0.74 0.3 0 0.76 0.3 0 
0.78 0.3 0 0.8 0.3 0 0.82 0.3 0 
0.84 0.3 0 0.86 0.3 0 0.88 0.3 0 
0.9 0.3 0 0.92 0.3 0 0.94 0.3 0 
0.96 0.3 0 0.98 0.3 0 1 0.3 0 
0 0.32 0 0.02 0.32 0 0.04 0.32 0 
0.06 0.32 0 0.08 0.32 0 0.1 0.32 0 
0.12 0.32 0 0.14 0.32 0 0.16 0.32 0 
0.18 0.32 0 0.2 0.32 0 0.22 0.32 0 
0.24 0.32 0 0.26 0.32 0 0.28 0.32 0 
0.3 0.32 0 0.32 0.32 0 0.34 0.32 0 
0.36 0.32 0 0.38 0.32 0 0.4 0.32 0 
0.42 0.32 0 0.44 0.32 0 0.46 0.32 0 
0.48 0.32 0 0.5 0.32 0 0.52 0.32 0 
0.54 0.32 0 0.56 0.32 0 0.58 0.32 0 
[...]
CELL_DATA 2500
FIELD FieldData 1
pressure 1 2500 double
0.0061814742306 0.0061154985135 0.0059270039579 0.0056537074989 0.005335468608 0.005005534093 0.0046893702089 0.0044055269071 0.0041669344431 
0.0039821681855 0.0038565693092 0.0037931950485 0.0037935975211 0.0038584294622 0.0039878664793 0.0041818369943 0.0044400681744 0.0047619802296 
0.0051464796575 0.0055917067931 0.0060947855114 0.0066516072772 0.007256664016 0.0079029299177 0.0085817831364 0.0092829516871 0.0099941091898 
0.01070203694 0.011392809991 0.012051907799 0.012664635638 0.013216648565 0.013694543405 0.014086484727 0.014382828853 0.014576708434 
0.014664540622 0.014646425888 0.014526412268 0.014312611208 0.014017165611 0.013656086126 0.013248985292 0.012818745091 0.012391150295 
0.011994388952 0.011658289163 0.011412392642 0.011280787541 0.011268380141 0.0062504969268 0.0061851186631 0.0060230157114 0.0057941184312 
0.0055284173195 0.0052522581507 0.004986753086 0.0047477286644 0.0045464509234 0.0043906041227 0.0042852470995 0.0042336301599 0.0042378330109 
0.0042992121968 0.0044186615348 0.004596707449 0.0048334781797 0.0051285930896 0.0054810131217 0.0058888815952 0.0063493723422 0.0068585525879 
0.007411263835 0.0080010252515 0.0086199691625 0.009258829994 0.0099060431106 0.01054964894 0.01117709097 0.011775293704 0.012331077252 
0.012831643071 0.013265111385 0.013621083158 0.013891195298 0.014069635452 0.014153583125 0.014143547439 0.014043578531 0.013861339343 
0.013608036146 0.01329821731 0.012949457663 0.012581944804 0.012217964773 0.011881232688 0.011595873258 0.011384847956 0.011267322733 
0.011255962921 0.0064466801879 0.0063481909981 0.0061807236331 0.0059675273416 0.0057308651829 0.0054901462956 0.0052610263755 0.0050554671477 
0.0048823100243 0.0047479834009 0.0046571477182 0.0046132107236 0.0046186982754 0.0046754851649 0.0047849069771 0.0049477872205 0.0051644145709 
0.0054344932181 0.0057570741342 0.0061304670337 0.00655213244 0.0070185583608 0.0075251338407 0.0080660386773 0.0086341729513 0.0092211552896 
0.0098159213911 0.010407520925 0.01098442058 0.011534593935 0.01204592339 0.012506660805 0.012905931446 0.013234257961 0.013484075443 
0.01365020535 0.013730255915 0.013724919698 0.013638145008 0.013477167076 0.013252395298 0.012977162994 0.012667353468 0.012340916989 
0.01201728405 0.011716659911 0.011459158212 0.011263809151 0.011147666462 0.011126166065 0.0067306381372 0.0065763242674 0.0063831721043 
0.0061665578604 0.0059410452297 0.0057193681354 0.0055120578919 0.0053275698791 0.0051725965954 0.0050523946181 0.0049710726237 0.0049318303303 
0.0049371401915 0.0049888692525 0.0050883526882 0.0052364359493 0.0054334936988 0.0056794200793 0.0059735793687 0.0063147124508 0.0067008052618 
0.0071289362198 0.0075951264725 0.0080942184273 0.0086198059059 0.0091642365159 0.0097168115731 0.010267345203 0.010805033491 0.011318563477 
0.01179649848 0.012227722075 0.012601925403 0.012910114966 0.013145111632 0.013302007838 0.013378549417 0.013375411064 0.013296340518 
0.013148155766 0.012940590316 0.012685992912 0.012398897651 0.012095486136 0.011792964478 0.011508877693 0.01126039429 0.011063651805 
0.010933374367 0.010883209255 0.0070638244558 0.0068433686348 0.0066119892484 0.0063775771229 0.0061480712703 0.0059308651928 0.0057325235831 
0.0055586952059 0.0054140984317 0.0053025645827 0.0052271419495 0.0051902351779 0.0051937407665 0.0052391549455 0.0053276500114 0.0054601192906 
0.0056371836553 0.0058591481297 0.0061259042873 0.0064367868546 0.0067904026506 0.0071844551974 0.0076155878487 0.0080792645303 0.008569703272 
0.0090798736913 0.0095993938407 0.010118618246 0.010627236328 0.011114364957 0.011568921061 0.011980059194 0.012337657347 0.012632826544 
0.012858413171 0.013009459005 0.013083582937 0.013081250619 0.013005904602 0.012863937191 0.012664500287 0.012419160027 0.01214141675 
0.011846121059 0.011548824205 0.011265106701 0.01100993757 0.010797133528 0.010639004795 0.010546207978 0.0074143222207 0.0071235221105 
0.00684533904 0.0065820637437 0.0063368944584 0.0061133586179 0.0059148878102 0.005744520846 0.005604753932 0.0054975484646 0.0054244521345 
0.0053867564159 0.0053856293617 0.0054222000359 0.0054975937794 0.0056129194726 0.0057692056673 0.0059672851891 0.0062076378911 0.0064902084251 
0.0068142174846 0.0071779831347 0.0075787652692 0.0080126437929 0.0084744407682 0.0089576956513 0.0094523489443 0.0099490758544 0.010437861006 
0.010908006214 0.011348498206 0.011748449676 0.012097595333 0.012386816698 0.012608662602 0.012757827976 0.012831551705 0.012829896266 
0.012755878335 0.012615429909 0.01241718328 0.012172089305 0.011892894242 0.011593514359 0.011288357847 0.010991648616 0.010716805566 
0.010475919363 0.010279330417 0.010135191261 0.0077544497281 0.0073913180098 0.0070607721843 0.0067615718304 0.0064935816209 0.0062571753017 
0.0060527960956 0.0058807034125 0.0057409362263 0.0056334387925 0.0055582444262 0.0055156268162 0.0055061794858 0.0055308255194 0.0055907713974 
0.0056874136215 0.0058222030231 0.005996475688 0.0062112644161 0.0064671033993 0.0067638352658 0.0071004270074 0.0074748011693 0.0078836912878 
0.0083225336459 0.0087854082289 0.0092626142248 0.0097449197141 0.010222436816 0.010684445078 0.011119759922 0.011517183076 0.011866016073 
0.01215660956 0.01238091379 0.012532990227 0.012609441268 0.012609716483 0.01253626029 0.012394476997 0.012192504893 0.011940809649 
0.011651626201 0.011338295321 0.01101455292 0.010693833502 0.010388641111 0.010110015948 0.0098670733306 0.0096665009109 0.0080592130596 
0.0076235493502 0.0072385015671 0.0069003718688 0.0066061130271 0.0063529978974 0.0061384166047 0.0059598615165 0.0058150728003 0.0057022427751 
0.0056201787063 0.0055683766341 0.0055470112248 0.0055568660363 0.0055992220439 0.0056757122644 0.0057881485697 0.0059383301688 0.0061278426982 
0.0063578520743 0.0066288948339 0.006940668059 0.0072918265577 0.0076798003909 0.0081006487829 0.0085489665722 0.0090154829816 0.0094908312102 
0.0099651217413 0.01042744813 0.010866256462 0.011269806553 0.01162670667 0.011926494362 0.012160227415 0.012321041918 0.012404630139 
0.012409591638 0.012337617112 0.012193476217 0.011984798001 0.011721653572 0.01141597266 0.011080845726 0.010729776699 0.01037595434 
0.010031598864 0.00970741105 0.0094121013079 0.0091519083184 0.0083067467936 0.0078005614813 0.0073617686584 0.0069842775559 0.0066620726812 
0.0063893544604 0.0061606692996 0.005971112036 0.0058165502543 0.0056937939273 0.0056006703331 0.0055360125717 0.0054995908881 0.0054920076114 
0.0055145617258 0.0055690838811 0.0056577462515 0.0057828545684 0.0059466264821 0.0061509568095 0.0063971713234 0.0066857753775 0.0070162095843 
0.0073866289758 0.0077937227732 0.0082325906678 0.0086945238084 0.00916981037 0.0096484772096 0.010119313131 0.010570235637 0.010988761617 
0.011362565315 0.011680096502 0.011931221653 0.012107842078 0.012204437238 0.012218480979 0.012150683664 0.012005025212 0.011788562686 
0.011511019321 0.011184187158 0.010821198616 0.010435738214 0.010041269657 0.0096503416938 0.0092740062837 0.0089213363692 0.0085989746265 
0.0084785843328 0.0079054792364 0.0074150409668 0.0069986092044 0.0066472946882 0.0063525365717 0.0061064781634 0.0059022574322 0.0057342034122 
0.0055979301124 0.005490346884 0.0054096167471 0.0053550820651 0.0053271583579 0.0053271902019 0.0053572685862 0.0054200166363 0.005518351598 
0.0056552267777 0.0058333556563 0.0060549233673 0.0063212953943 0.0066327375292 0.006988162898 0.0073849213725 0.0078186454492 0.0082814002177 
0.0087629481456 0.0092531974246 0.0097405544047 0.010212282098 0.010654977535 0.011055153427 0.01139989789 0.011677574377 0.01187851323 
0.011995638738 0.012024973151 0.011965962837 0.01182158332 0.011598199242 0.01130518055 0.010954304841 0.01055900267 0.010133522137 
0.0096920957935 0.0092481825976 0.0088138289241 0.0083991489288 0.0080118742962 0.00855862884 0.0079225682827 0.0073827321612 0.0069279991539 
0.0065469318319 0.0062285945872 0.0059630652643 0.0057417441192 0.005557517278 0.005404821888 0.0052796537448 0.0051795384871 0.0051034646113 
0.0050517674187 0.005025959574 0.0050285151881 0.0050626196011 0.005131893987 0.0052400992049 0.0053908230778 0.0055871580258 0.0058313789814 
0.0061246338862 0.0064666600829 0.006855540672 0.0072875151813 0.0077557160729 0.0082492347109 0.008757868938 0.0092696044715 0.0097709572816 
0.010247452393 0.010684226805 0.011066732197 0.011381500145 0.011616919844 0.0117639683 0.011816827621 0.011773325281 0.011635143312 
0.011407761442 0.011100126164 0.010724069667 0.010293533988 0.0098236802843 0.0093299744869 0.0088273336165 0.0083293907186 0.0078478945146 
0.0073922118769 0.0085317795061 0.0078365017872 0.0072495805122 0.0067577160958 0.0063471804032 0.0060048416023 0.0057187934643 0.0054787108541 
0.0052760362982 0.0051040679875 0.0049579862613 0.0048348258572 0.0047333866447 0.0046540793159 0.0045987138994 0.004570246057 0.0045724945531 
0.0046098368942 0.0046868862722 0.0048081536052 0.0049777004443 0.0051987904333 0.0054735491294 0.00580264434 0.0061850027013 0.0066175827006 
0.0070949607336 0.0076054482204 0.0081387886664 0.008682555348 0.0092224652237 0.009742850528 0.01022727651 0.010659284776 0.011023227687 
0.011305143985 0.01149361245 0.011580510931 0.011561605763 0.011436903692 0.011210716135 0.010891413536 0.01049088277 0.010023737444 
0.0095063623564 0.0089558916711 0.0083892192391 0.0078221173043 0.0072685001406 0.0067398221281 0.0083834528628 0.007632794386 0.0070016325441 
0.0064746174572 0.0060357498387 0.0056696725806 0.0053624607621 0.0051020710419 0.0048785808371 0.0046842966637 0.0045137689582 0.0043637255704 
0.0042329306237 0.0041219811947 0.0040330588279 0.0039696508533 0.0039362496763 0.0039380321312 0.0039805196302 0.0040692213906 0.0042092645305 
0.0044050166679 0.0046597095159 0.0049750759495 0.0053510181976 0.0057853299395 0.006274569176 0.0068061372269 0.0073698620103 0.0079529726056 
0.0085403860113 0.0091151617583 0.0096591234513 0.010153635811 0.010580508592 0.010922979948 0.011166713948 0.011300732441 0.011318193829 
0.011216933786 0.010999697582 0.010674021268 0.010251757154 0.0097482822843 0.0091814690927 0.0085705257718 0.0079348221129 0.0072928012027 
0.0066610411791 0.0060534846428 0.0081000086724 0.0072984002218 0.0066265301534 0.0060669094375 0.0056011797932 0.0052117240306 0.0048826379437 
0.0046002748852 0.0043535157474 0.0041338599911 0.0039353917681 0.0037546534852 0.0035904520859 0.003443620091 0.0033167473621 0.0032138914979 
0.0031402679695 0.0031019183862 0.003105356409 0.0031571925201 0.0032637399081 0.0034306057782 0.0036622758513 0.0039617045951 0.004329929367 
0.0047657314838 0.005268131572 0.0058237292542 0.0064226292106 0.0070518408095 0.0076955384651 0.008335481196 0.0089516191845 0.0095228911496 
0.010028192951 0.010447474804 0.010762901602 0.010959990147 0.011028622444 0.010963829634 0.010766250358 0.010442192611 0.010003268379 
0.0094656207631 0.0088488154036 0.0081745105164 0.0074650421204 0.0067420566665 0.0060252928929 0.0053315683555 0.0076692280227 0.0068217333417 
0.0061130671687 0.0055235016734 0.0050323251388 0.0046197465261 0.0042680243377 0.0039620737985 0.0036897344931 0.0034418199024 0.00321202736 
0.0029967608783 0.0027949025786 0.0026075543357 0.0024377589988 0.0022902023834 0.0021708936223 0.0020868216802 0.0020455874536 0.0020550114863 
0.0021227178203 0.0022556966077 0.0024598516333 0.0027395435232 0.0030971454609 0.0035326414729 0.0040477127385 0.0046288072485 0.0052664863827 
0.0059477109255 0.0066560395418 0.0073719719379 0.0080735095838 0.0087369517125 0.0093379165741 0.0098525525987 0.010258876642 0.010538148729 
0.010676168997 0.010664368053 0.01050056248 0.010189267131 0.0097414962711 0.0091740434426 0.0085082962983 0.0077687044048 0.0069810607704 
0.0061707703947 0.0053612583061 0.0045726235183 0.007080328926 0.006192335325 0.0054508400292 0.0048339336324 0.004318688603 0.0038832997045 
0.0035083374069 0.0031773970149 0.0028773564816 0.0025983902022 0.0023338380362 0.0020799943828 0.0018358558353 0.0016028457199 0.0013845209922 
0.0011862610928 0.0010149367237 0.00087855679664 0.00078589182116 0.00074607117398 0.00076815198964 0.0008606596715 0.0010311033252 0.0012854724646 
0.0016277210459 0.0020592353871 0.0025843181542 0.0031906248146 0.0038691744916 0.0046071177209 0.0053876249862 0.0061900740089 0.0069905244306 
0.0077624833668 0.0084779587503 0.0091087759393 0.009628102137 0.010012087517 0.010241496901 0.010303178049 0.01019120011 0.0099075058782 
0.0094619588359 0.0088717301343 0.0081600537849 0.0073544653467 0.0064847109915 0.0055805518521 0.0046696831362 0.0037759427963 0.0063237633701 
0.0054007791088 0.0046304609768 0.0039888983524 0.0034511182143 0.0029934361352 0.002594828301 0.0022376292946 0.0019077935202 0.0015948885204 
0.0012919348682 0.00099516572183 0.0007037471365 0.0004194782235 0.00014647818549 -0.00010913833684 -0.00033959901881 -0.00053582797124 -0.0006878214234 
-0.00078505152361 -0.00081690396225 -0.00077315230598 -0.00064446806936 -0.00042296183774 -0.00010275169787 0.00031942027473 0.00084851329858 0.0014779643094 
0.0021976112491 0.0029953284237 0.0038542930107 0.0047530267812 0.0056657654288 0.0065631626609 0.0074133454811 0.0081833160131 0.0088406594673 
0.0093554730284 0.0097023817426 0.0098624625528 0.0098248666743 0.0095879246307 0.0091595470042 0.0085568015379 0.007804648451 0.0069339346384 
0.0059788585726 0.0049741932236 0.0039525735648 0.0029421147813 0.0053912421126 0.004438966788 0.0036440394477 0.0029807301873 0.0024221515608 
0.0019428344966 0.0015202310712 0.001135473778 0.00077364975235 0.00042377753446 7.8616006669e-05 -0.00026561169477 -0.00060953186448 -0.00095094736425 
-0.001285167506 -0.0016053382246 -0.0019027758167 -0.002167311472 -0.0023876565217 -0.0025517991157 -0.0026474413782 -0.0026624827576 -0.0025855502361 
-0.0024065677681 -0.0021173393848 -0.0017120648421 -0.0011874892477 -0.00053938856751 0.00021913613699 0.0010774692123 0.0020193270365 0.0030227733344 
0.0040604708523 0.0051002826993 0.0061062847447 0.0070402160583 0.007863351697 0.0085387275059 0.0090335825665 0.009321818979 0.0093862229495 
0.0092201611238 0.0088284778368 0.0082273838235 0.0074432453751 0.0065103397623 0.0054678064951 0.004356153535 0.0032137358946 0.0020735943028 
0.0042760502542 0.0033005029954 0.0024854476047 0.0018034791365 0.0012259182945 0.00072562432529 0.00027863152788 -0.00013503163518 -0.00053106005814 
-0.00092091726826 -0.0013120622768 -0.0017082636252 -0.0021099450091 -0.0025145328384 -0.0029167929546 -0.0033091555119 -0.0036820350019 -0.0040241571411 
-0.0043229067138 -0.0045647105037 -0.0047354676367 -0.0048210367682 -0.0048077852791 -0.0046831993431 -0.0044365441537 -0.0040595501417 -0.0035471005326 
-0.0028889543018 -0.0020969498615 -0.0011799783504 -0.00015326614803 0.00096130518768 0.002135229386 0.0033338018972 0.0045170233975 0.0056410410831 
0.0066601456723 0.0075292800095 0.0082069356912 0.0086582240065 0.0088578201787 0.0087924154969 0.0084622946041 0.0078817067497 0.0070778305037 
0.0060883307117 0.0049577377655 0.0037330850516 0.0024593596767 0.001175315028 0.0029733751131 0.0019808479816 0.0011502830648 0.0004527690876 
-0.00014198428995 -0.00066261494036 -0.0011343530008 -0.0015781541006 -0.0020104150915 -0.0024430420027 -0.0028837086193 -0.0033362008034 -0.0038007839048 
-0.0042745598959 -0.0047518012698 -0.0052242630574 -0.0056814832138 -0.006111086368 -0.0064991079883 -0.0068303560485 -0.0070888261555 -0.0072581842427 
-0.0073223281184 -0.0072660360674 -0.0070757104726 -0.0067402401591 -0.0062520880868 -0.0055946254111 -0.004777703963 -0.0038073242025 -0.0026968820724 
-0.0014675142116 -0.00014830289006 0.0012239044851 0.0026052078332 0.0039460060016 0.0051930504782 0.0062921976953 0.0071917631291 0.0078462643228 
0.0082202144984 0.0082915177299 0.0080539541575 0.0075182652526 0.006711480637 0.0056743698109 0.0044572164138 0.0031144231804 0.0016986680832 
0.0002553710826 0.0014804347396 0.0004772821248 -0.00036421370604 -0.0010742147103 -0.0016843662156 -0.0022245834629 -0.0027211963557 -0.0031960411048 
-0.0036661697801 -0.0041439305632 -0.004637245587 -0.0051499733477 -0.0056822873849 -0.006231034978 -0.0067900626643 -0.007350511148 -0.0079010915542 
-0.0084283600532 -0.0089170103702 -0.0093502044854 -0.0097099617037 -0.009977625215 -0.010134423041 -0.010162137228 -0.010043891982 -0.0097650678756 
-0.0093143291349 -0.0086735957995 -0.0078442081449 -0.006829376379 -0.0056399984492 -0.0042956402968 -0.0028251607626 -0.0012668859313 0.00033180994297 
0.0019156617218 0.0034235253097 0.0047912977422 0.005955696513 0.0068587079358 0.0074523455884 0.0077031902067 0.0075960545926 0.0071360844656 
0.0063487176364 0.0052772003868 0.0039777702063 0.0025130639175 0.00094466127151 -0.00067420435361 -0.00020354150052 -0.0012111211365 -0.0020591036456 
-0.0027785638792 -0.0034022059646 -0.0039609975957 -0.004482222772 -0.0049885247331 -0.0054975948183 -0.0060222494744 -0.0065707140833 -0.0071469933476 
-0.0077512540655 -0.0083801804225 -0.0090272871029 -0.0096831925456 -0.010335865008 -0.010970860209 -0.011571572791 -0.012119525606 -0.012594721479 
-0.01297608145 -0.013241991415 -0.013370975472 -0.013342508566 -0.01313797345 -0.012741767421 -0.012135718596 -0.011309405642 -0.010262897615 
-0.0090034904235 -0.0075481037681 -0.0059243316569 -0.0041710426114 -0.0023383574721 -0.00048681042729 0.00131449 0.0029908301796 0.0044660160944 
0.0056675164396 0.0065322728948 0.0070125859402 0.007081268227 0.0067351382729 0.0059959851666 0.0049084250953 0.0035345823728 0.0019461554617 
0.00021498019825 -0.0015965345046 -0.0020773289072 -0.0030834436221 -0.0039336408891 -0.0046595304191 -0.0052945703842 -0.0058705655236 -0.0064156255763 
-0.0069531457819 -0.007501458775 -0.0080738941428 -0.0086790571392 -0.0093211984775 -0.010000594344 -0.010713892319 -0.011454406117 -0.012212360588 
-0.012975100217 -0.013727281794 -0.014451076367 -0.015126408142 -0.015731259074 -0.016242067646 -0.016634248629 -0.016882856888 -0.016963409876 
-0.016852860429 -0.016530633704 -0.015979328591 -0.01517511683 -0.014113742734 -0.012797674663 -0.01123994131 -0.0094656125544 -0.0075128861332 
-0.0054335682798 -0.0032926944969 -0.0011670275524 0.00085779432689 0.0026915885467 0.004245393352 0.0054383656945 0.0062051909743 0.0065030548264 
0.0063169808805 0.0056622937805 0.0045832300417 0.0031473231991 0.0014360329036 -0.0004670802723 -0.0024888389049 -0.0041376880117 -0.0051369005455 
-0.0059852971105 -0.0067146213589 -0.0073587676608 -0.0079501582563 -0.0085176041725 -0.0090852105219 -0.0096719763074 -0.010291821967 -0.010953849588 
-0.011662700032 -0.012418919626 -0.013219287656 -0.014057084905 -0.014922303545 -0.015801812005 -0.016679497021 -0.017536410374 -0.018350950861 
-0.019099113637 -0.019754839451 -0.020290495873 -0.020677521346 -0.02088726101 -0.020892023985 -0.02066641439 -0.020189133259 -0.019429519196 
-0.018374116048 -0.017019337939 -0.015373002789 -0.013456234134 -0.011305091182 -0.0089716607964 -0.0065242934447 -0.0040466325308 -0.0016350961061 
0.0006054533501 0.0025679433983 0.0041510349853 0.0052681800198 0.0058567356216 0.0058856581458 0.0053600867347 0.0043212957352 0.0028411555757 
0.0010113268946 -0.0010713790659 -0.0033211879816 -0.0063794083182 -0.0073669702358 -0.008209978257 -0.0089398645396 -0.0095906068478 -0.010195010553 
-0.010782471993 -0.011377794986 -0.012000718613 -0.012665890722 -0.01338308836 -0.014157543765 -0.014990283234 -0.015878425724 -0.016815418149 
-0.017791205695 -0.018792350187 -0.019802119258 -0.020800575128 -0.021764695462 -0.022668560996 -0.02348364583 -0.024179247218 -0.024723092122 
-0.025082158706 -0.025223755864 -0.02511693114 -0.024734403241 -0.024045167387 -0.023020224014 -0.02164902943 -0.019932900402 -0.01788750086 
-0.015545075331 -0.012956259358 -0.010191092818 -0.0073387972679 -0.0045058525998 -0.0018119469088 0.00061647890498 0.0026550718639 0.0041923039932 