# vtk DataFile Version 4.1
vtk output
ASCII
DATASET STRUCTURED_GRID
DIMENSIONS 51 51 1
POINTS 2601 float
0 0 0 0.02 0 0 0.04 0 0 
0.06 0 0 0.08 0 0 0.1 0 0 
0.12 0 0 0.14 0 0 0.16 0 0 
0.18 0 0 0.2 0 0 0.22 0 0 
0.24 0 0 0.26 0 0 0.28 0 0 
0.3 0 0 0.32 0 0 0.34 0 0 
0.36 0 0 0.38 0 0 0.4 0 0 
0.42 0 0 0.44 0 0 0.46 0 0 
0.48 0 0 0.5 0 0 0.52 0 0 
0.54 0 0 0.56 0 0 0.58 0 0 
0.6 0 0 0.62 0 0 0.64 0 0 
0.66 0 0 0.68 0 0 0.7 0 0 
0.72 0 0 0.74 0 0 0.76 0 0 
0.78 0 0 0.8 0 0 0.82 0 0 
0.84 0 0 0.86 0 0 0.88 0 0 
0.9 0 0 0.92 0 0 0.94 0 0 
0.96 0 0 0.98 0 0 1 0 0 
0 0.02 0 0.02 0.02 0 0.04 0.02 0 
0.06 0.02 0 0.08 0.02 0 0.1 0.02 0 
0.12 0.02 0 0.14 0.02 0 0.16 0.02 0 
0.18 0.02 0 0.2 0.02 0 0.22 0.02 0 
0.24 0.02 0 0.26 0.02 0 0.28 0.02 0 
0.3 0.02 0 0.32 0.02 0 0.34 0.02 0 
0.36 0.02 0 0.38 0.02 0 0.4 0.02 0 
0.42 0.02 0 0.44 0.02 0 0.46 0.02 0 
0.48 0.02 0 0.5 0.02 0 0.52 0.02 0 
0.54 0.02 0 0.56 0.02 0 0.58 0.02 0 
0.6 0.02 0 0.62 0.02 0 0.64 0.02 0 
0.66 0.02 0 0.68 0.02 0 0.7 0.02 0 
0.72 0.02 0 0.74 0.02 0 0.76 0.02 0 
0.78 0.02 0 0.8 0.02 0 0.82 0.02 0 
0.84 0.02 0 0.86 0.02 0 0.88 0.02 0 
0.9 0.02 0 0.92 0.02 0 0.94 0.02 0 
0.96 0.02 0 0.98 0.02 0 1 0.02 0 
0 0.04 0 0.02 0.04 0 0.04 0.04 0 
0.06 0.04 0 0.08 0.04 0 0.1 0.04 0 
0.12 0.04 0 0.14 0.04 0 0.16 0.04 0 
0.18 0.04 0 0.2 0.04 0 0.22 0.04 0 
0.24 0.04 0 0.26 0.04 0 0.28 0.04 0 
0.3 0.04 0 0.32 0.04 0 0.34 0.04 0 
0.36 0.04 0 0.38 0.04 0 0.4 0.04 0 
0.42 0.04 0 0.44 0.04 0 0.46 0.04 0 
0.48 0.04 0 0.5 0.04 0 0.52 0.04 0 
0.54 0.04 0 0.56 0.04 0 0.58 0.04 0 
0.6 0.04 0 0.62 0.04 0 0.64 0.04 0 
0.66 0.04 0 0.68 0.04 0 0.7 0.04 0 
0.72 0.04 0 0.74 0.04 0 0.76 0.04 0 
0.78 0.04 0 0.8 0.04 0 0.82 0.04 0 
0.84 0.04 0 0.86 0.04 0 0.88 0.04 0 
0.9 0.04 0 0.92 0.04 0 0.94 0.04 0 
0.96 0.04 0 0.98 0.04 0 1 0.04 0 
0 0.06 0 0.02 0.06 0 0.04 0.06 0 
0.06 0.06 0 0.08 0.06 0 0.1 0.06 0 
0.12 0.06 0 0.14 0.06 0 0.16 0.06 0 
0.18 0.06 0 0.2 0.06 0 0.22 0.06 0 
0.24 0.06 0 0.26 0.06 0 0.28 0.06 0 
0.3 0.06 0 0.32 0.06 0 0.34 0.06 0 
0.36 0.06 0 0.38 0.06 0 0.4 0.06 0 
0.42 0.06 0 0.44 0.06 0 0.46 0.06 0 
0.48 0.06 0 0.5 0.06 0 0.52 0.06 0 
0.54 0.06 0 0.56 0.06 0 0.58 0.06 0 
0.6 0.06 0 0.62 0.06 0 0.64 0.06 0 
0.66 0.06 0 0.68 0.06 0 0.7 0.06 0 
0.72 0.06 0 0.74 0.06 0 0.76 0.06 0 
0.78 0.06 0 0.8 0.06 0 0.82 0.06 0 
0.84 0.06 0 0.86 0.06 0 0.88 0.06 0 
0.9 0.06 0 0.92 0.06 0 0.94 0.06 0 
0.96 0.06 0 0.98 0.06 0 1 0.06 0 
0 0.08 0 0.02 0.08 0 0.04 0.08 0 
0.06 0.08 0 0.08 0.08 0 0.1 0.08 0 
0.12 0.08 0 0.14 0.08 0 0.16 0.08 0 
0.18 0.08 0 0.2 0.08 0 0.22 0.08 0 
0.24 0.08 0 0.26 0.08 0 0.28 0.08 0 
0.3 0.08 0 0.32 0.08 0 0.34 0.08 0 
0.36 0.08 0 0.38 0.08 0 0.4 0.08 0 
0.42 0.08 0 0.44 0.08 0 0.46 0.08 0 
0.48 0.08 0 0.5 0.08 0 0.52 0.08 0 
0.54 0.08 0 0.56 0.08 0 0.58 0.08 0 
0.6 0.08 0 0.62 0.08 0 0.64 0.08 0 
0.66 0.08 0 0.68 0.08 0 0.7 0.08 0 
0.72 0.08 0 0.74 0.08 0 0.76 0.08 0 
0.78 0.08 0 0.8 0.08 0 0.82 0.08 0 
0.84 0.08 0 0.86 0.08 0 0.88 0.08 0 
0.9 0.08 0 0.92 0.08 0 0.94 0.08 0 
0.96 0.08 0 0.98 0.08 0 1 0.08 0 
0 0.1 0 0.02 0.1 0 0.04 0.1 0 
0.06 0.1 0 0.08 0.1 0 0.1 0.1 0 
0.12 0.1 0 0.14 0.1 0 0.16 0.1 0 
0.18 0.1 0 0.2 0.1 0 0.22 0.1 0 
0.24 0.1 0 0.26 0.1 0 0.28 0.1 0 
0.3 0.1 0 0.32 0.1 0 0.34 0.1 0 
0.36 0.1 0 0.38 0.1 0 0.4 0.1 0 
0.42 0.1 0 0.44 0.1 0 0.46 0.1 0 
0.48 0.1 0 0.5 0.1 0 0.52 0.1 0 
0.54 0.1 0 0.56 0.1 0 0.58 0.1 0 
0.6 0.1 0 0.62 0.1 0 0.64 0.1 0 
0.66 0.1 0 0.68 0.1 0 0.7 0.1 0 
0.72 0.1 0 0.74 0.1 0 0.76 0.1 0 
0.78 0.1 0 0.8 0.1 0 0.82 0.1 0 
0.84 0.1 0 0.86 0.1 0 0.88 0.1 0 
0.9 0.1 0 0.92 0.1 0 0.94 0.1 0 
0.96 0.1 0 0.98 0.1 0 1 0.1 0 
0 0.12 0 0.02 0.12 0 0.04 0.12 0 
0.06 0.12 0 0.08 0.12 0 0.1 0.12 0 
0.12 0.12 0 0.14 0.12 0 0.16 0.12 0 
0.18 0.12 0 0.2 0.12 0 0.22 0.12 0 
0.24 0.12 0 0.26 0.12 0 0.28 0.12 0 
0.3 0.12 0 0.32 0.12 0 0.34 0.12 0 
0.36 0.12 0 0.38 0.12 0 0.4 0.12 0 
0.42 0.12 0 0.44 0.12 0 0.46 0.12 0 
0.48 0.12 0 0.5 0.12 0 0.52 0.12 0 
0.54 0.12 0 0.56 0.12 0 0.58 0.12 0 
0.6 0.12 0 0.62 0.12 0 0.64 0.12 0 
0.66 0.12 0 0.68 0.12 0 0.7 0.12 0 
0.72 0.12 0 0.74 0.12 0 0.76 0.12 0 
0.78 0.12 0 0.8 0.12 0 0.82 0.12 0 
0.84 0.12 0 0.86 0.12 0 0.88 0.12 0 
0.9 0.12 0 0.92 0.12 0 0.94 0.12 0 
0.96 0.12 0 0.98 0.12 0 1 0.12 0 
0 0.14 0 0.02 0.14 0 0.04 0.14 0 
0.06 0.14 0 0.08 0.14 0 0.1 0.14 0 
0.12 0.14 0 0.14 0.14 0 0.16 0.14 0 
0.18 0.14 0 0.2 0.14 0 0.22 0.14 0 
0.24 0.14 0 0.26 0.14 0 0.28 0.14 0 
0.3 0.14 0 0.32 0.14 0 0.34 0.14 0 
0.36 0.14 0 0.38 0.14 0 0.4 0.14 0 
0.42 0.14 0 0.44 0.14 0 0.46 0.14 0 
0.48 0.14 0 0.5 0.14 0 0.52 0.14 0 
0.54 0.14 0 0.56 0.14 0 0.58 0.14 0 
0.6 0.14 0 0.62 0.14 0 0.64 0.14 0 
0.66 0.14 0 0.68 0.14 0 0.7 0.14 0 
0.72 0.14 0 0.74 0.14 0 0.76 0.14 0 
0.78 0.14 0 0.8 0.14 0 0.82 0.14 0 
0.84 0.14 0 0.86 0.14 0 0.88 0.14 0 
0.9 0.14 0 0.92 0.14 0 0.94 0.14 0 
0.96 0.14 0 0.98 0.14 0 1 0.14 0 
0 0.16 0 0.02 0.16 0 0.04 0.16 0 
0.06 0.16 0 0.08 0.16 0 0.1 0.16 0 
0.12 0.16 0 0.14 0.16 0 0.16 0.16 0 
0.18 0.16 0 0.2 0.16 0 0.22 0.16 0 
0.24 0.16 0 0.26 0.16 0 0.28 0.16 0 
0.3 0.16 0 0.32 0.16 0 0.34 0.16 0 
0.36 0.16 0 0.38 0.16 0 0.4 0.16 0 
0.42 0.16 0 0.44 0.16 0 0.46 0.16 0 
0.48 0.16 0 0.5 0.16 0 0.52 0.16 0 
0.54 0.16 0 0.56 0.16 0 0.58 0.16 0 
0.6 0.16 0 0.62 0.16 0 0.64 0.16 0 
0.66 0.16 0 0.68 0.16 0 0.7 0.16 0 
0.72 0.16 0 0.74 0.16 0 0.76 0.16 0 
0.78 0.16 0 0.8 0.16 0 0.82 0.16 0 
0.84 0.16 0 0.86 0.16 0 0.88 0.16 0 
0.9 0.16 0 0.92 0.16 0 0.94 0.16 0 
0.96 0.16 0 0.98 0.16 0 1 0.16 0 
0 0.18 0 0.02 0.18 0 0.04 0.18 0 
0.06 0.18 0 0.08 0.18 0 0.1 0.18 0 
0.12 0.18 0 0.14 0.18 0 0.16 0.18 0 
0.18 0.18 0 0.2 0.18 0 0.22 0.18 0 
0.24 0.18 0 0.26 0.18 0 0.28 0.18 0 
0.3 0.18 0 0.32 0.18 0 0.34 0.18 0 
0.36 0.18 0 0.38 0.18 0 0.4 0.18 0 
0.42 0.18 0 0.44 0.18 0 0.46 0.18 0 
0.48 0.18 0 0.5 0.18 0 0.52 0.18 0 
0.54 0.18 0 0.56 0.18 0 0.58 0.18 0 
0.6 0.18 0 0.62 0.18 0 0.64 0.18 0 
0.66 0.18 0 0.68 0.18 0 0.7 0.18 0 
0.72 0.18 0 0.74 0.18 0 0.76 0.18 0 
0.78 0.18 0 0.8 0.18 0 0.82 0.18 0 
0.84 0.18 0 0.86 0.18 0 0.88 0.18 0 
0.9 0.18 0 0.92 0.18 0 0.94 0.18 0 
0.96 0.18 0 0.98 0.18 0 1 0.18 0 
0 0.2 0 0.02 0.2 0 0.04 0.2 0 
0.06 0.2 0 0.08 0.2 0 0.1 0.2 0 
0.12 0.2 0 0.14 0.2 0 0.16 0.2 0 
0.18 0.2 0 0.2 0.2 0 0.22 0.2 0 
0.24 0.2 0 0.26 0.2 0 0.28 0.2 0 
0.3 0.2 0 0.32 0.2 0 0.34 0.2 0 
0.36 0.2 0 0.38 0.2 0 0.4 0.2 0 
0.42 0.2 0 0.44 0.2 0 0.46 0.2 0 
0.48 0.2 0 0.5 0.2 0 0.52 0.2 0 
0.54 0.2 0 0.56 0.2 0 0.58 0.2 0 
0.6 0.2 0 0.62 0.2 0 0.64 0.2 0 
0.66 0.2 0 0.68 0.2 0 0.7 0.2 0 
0.72 0.2 0 0.74 0.2 0 0.76 0.2 0 
0.78 0.2 0 0.8 0.2 0 0.82 0.2 0 
0.84 0.2 0 0.86 0.2 0 0.88 0.2 0 
0.9 0.2 0 0.92 0.2 0 0.94 0.2 0 
0.96 0.2 0 0.98 0.2 0 1 0.2 0 
0 0.22 0 0.02 0.22 0 0.04 0.22 0 
0.06 0.22 0 0.08 0.22 0 0.1 0.22 0 
0.12 0.22 0 0.14 0.22 0 0.16 0.22 0 
0.18 0.22 0 0.2 0.22 0 0.22 0.22 0 
0.24 0.22 0 0.26 0.22 0 0.28 0.22 0 
0.3 0.22 0 0.32 0.22 0 0.34 0.22 0 
0.36 0.22 0 0.38 0.22 0 0.4 0.22 0 
0.42 0.22 0 0.44 0.22 0 0.46 0.22 0 
0.48 0.22 0 0.5 0.22 0 0.52 0.22 0 
0.54 0.22 0 0.56 0.22 0 0.58 0.22 0 
0.6 0.22 0 0.62 0.22 0 0.64 0.22 0 
0.66 0.22 0 0.68 0.22 0 0.7 0.22 0 
0.72 0.22 0 0.74 0.22 0 0.76 0.22 0 
0.78 0.22 0 0.8 0.22 0 0.82 0.22 0 
0.84 0.22 0 0.86 0.22 0 0.88 0.22 0 
0.9 0.22 0 0.92 0.22 0 0.94 0.22 0 
0.96 0.22 0 0.98 0.22 0 1 0.22 0 
0 0.24 0 0.02 0.24 0 0.04 0.24 0 
0.06 0.24 0 0.08 0.24 0 0.1 0.24 0 
0.12 0.24 0 0.14 0.24 0 0.16 0.24 0 
0.18 0.24 0 0.2 0.24 0 0.22 0.24 0 
0.24 0.24 0 0.26 0.24 0 0.28 0.24 0 
0.3 0.24 0 0.32 0.24 0 0.34 0.24 0 
0.36 0.24 0 0.38 0.24 0 0.4 0.24 0 
0.42 0.24 0 0.44 0.24 0 0.46 0.24 0 
0.48 0.24 0 0.5 0.24 0 0.52 0.24 0 
0.54 0.24 0 0.56 0.24 0 0.58 0.24 0 
0.6 0.24 0 0.62 0.24 0 0.64 0.24 0 
0.66 0.24 0 0.68 0.24 0 0.7 0.24 0 
0.72 0.24 0 0.74 0.24 0 0.76 0.24 0 
0.78 0.24 0 0.8 0.24 0 0.82 0.24 0 
0.84 0.24 0 0.86 0.24 0 0.88 0.24 0 
0.9 0.24 0 0.92 0.24 0 0.94 0.24 0 
0.96 0.24 0 0.98 0.24 0 1 0.24 0 
0 0.26 0 0.02 0.26 0 0.04 0.26 0 
0.06 0.26 0 0.08 0.26 0 0.1 0.26 0 
0.12 0.26 0 0.14 0.26 0 0.16 0.26 0 
0.18 0.26 0 0.2 0.26 0 0.22 0.26 0 
0.24 0.26 0 0.26 0.26 0 0.28 0.26 0 
0.3 0.26 0 0.32 0.26 0 0.34 0.26 0 
0.36 0.26 0 0.38 0.26 0 0.4 0.26 0 
0.42 0.26 0 0.44 0.26 0 0.46 0.26 0 
0.48 0.26 0 0.5 0.26 0 0.52 0.26 0 
0.54 0.26 0 0.56 0.26 0 0.58 0.26 0 
0.6 0.26 0 0.62 0.26 0 0.64 0.26 0 
0.66 0.26 0 0.68 0.26 0 0.7 0.26 0 
0.72 0.26 0 0.74 0.26 0 0.76 0.26 0 
0.78 0.26 0 0.8 0.26 0 0.82 0.26 0 
0.84 0.26 0 0.86 0.26 0 0.88 0.26 0 
0.9 0.26 0 0.92 0.26 0 0.94 0.26 0 
0.96 0.26 0 0.98 0.26 0 1 0.26 0 
0 0.28 0 0.02 0.28 0 0.04 0.28 0 
0.06 0.28 0 0.08 0.28 0 0.1 0.28 0 
0.12 0.28 0 0.14 0.28 0 0.16 0.28 0 
0.18 0.28 0 0.2 0.28 0 0.22 0.28 0 
0.24 0.28 0 0.26 0.28 0 0.28 0.28 0 
0.3 0.28 0 0.32 0.28 0 0.34 0.28 0 
0.36 0.28 0 0.38 0.28 0 0.4 0.28 0 
0.42 0.28 0 0.44 0.28 0 0.46 0.28 0 
0.48 0.28 0 0.5 0.28 0 0.52 0.28 0 
0.54 0.28 0 0.56 0.28 0 0.58 0.28 0 
0.6 0.28 0 0.62 0.28 0 0.64 0.28 0 
0.66 0.28 0 0.68 0.28 0 0.7 0.28 0 
0.72 0.28 0 0.74 0.28 0 0.76 0.28 0 
0.78 0.28 0 0.8 0.28 0 0.82 0.28 0 
0.84 0.28 0 0.86 0.28 0 0.88 0.28 0 
0.9 0.28 0 0.92 0.28 0 0.94 0.28 0 
0.96 0.28 0 0.98 0.28 0 1 0.28 0 
0 0.3 0 0.02 0.3 0 0.04 0.3 0 
0.06 0.3 0 0.08 0.3 0 0.1 0.3 0 
0.12 0.3 0 0.14 0.3 0 0.16 0.3 0 
0.18 0.3 0 0.2 0.3 0 0.22 0.3 0 
0.24 0.3 0 0.26 0.3 0 0.28 0.3 0 
0.3 0.3 0 0.32 0.3 0 0.34 0.3 0 
0.36 0.3 0 0.38 0.3 0 0.4 0.3 0 
0.42 0.3 0 0.44 0.3 0 0.46 0.3 0 
0.48 0.3 0 0.5 0.3 0 0.52 0.3 0 
0.54 0.3 0 0.56 0.3 0 0.58 0.3 0 
0.6 0.3 0 0.62 0.3 0 0.64 0.3 0 
0.66 0.3 0 0.68 0.3 0 0.7 0.3 0 
0.72 0.3 0 0.74 0.3 0 0.76 0.3 0 
0.78 0.3 0 0.8 0.3 0 0.82 0.3 0 
0.84 0.3 0 0.86 0.3 0 0.88 0.3 0 
0.9 0.3 0 0.92 0.3 0 0.94 0.3 0 
0.96 0.3 0 0.98 0.3 0 1 0.3 0 
0 0.32 0 0.02 0.32 0 0.04 0.32 0 
0.06 0.32 0 0.08 0.32 0 0.1 0.32 0 
0.12 0.32 0 0.14 0.32 0 0.16 0.32 0 
0.18 0.32 0 0.2 0.32 0 0.22 0.32 0 
0.24 0.32 0 0.26 0.32 0 0.28 0.32 0 
0.3 0.32 0 0.32 0.32 0 0.34 0.32 0 
0.36 0.32 0 0.38 0.32 0 0.4 0.32 0 
0.42 0.32 0 0.44 0.32 0 0.46 0.32 0 
0.48 0.32 0 0.5 0.32 0 0.52 0.32 0 
0.54 0.32 0 0.56 0.32 0 0.58 0.32 0 
[...]
CELL_DATA 2500
FIELD FieldData 1
pressure 1 2500 double
0.006184746015 0.0061145861007 0.0059231116547 0.0056496459732 0.0053328170383 0.0050044123475 0.0046894611132 0.0044067032499 0.0041690949898 
0.0039849285424 0.0038593092355 0.0037953347892 0.0037947805542 0.0038585441434 0.0039870277198 0.0041803701007 0.0044384266332 0.0047605811536 
0.005145554511 0.0055912679938 0.006094704834 0.0066517216478 0.0072568393749 0.0079030769149 0.0085818540491 0.0092829378087 0.0099940339513 
0.010701936526 0.011392708863 0.01205180751 0.01266452491 0.013216522613 0.013694412769 0.014086366638 0.014382732441 0.014576629099 
0.014664466982 0.014646350107 0.014526333993 0.014312534131 0.014017092472 0.013656017069 0.013248919326 0.012818681741 0.012391089767 
0.011994331375 0.011658234025 0.011412338904 0.011280734097 0.011268326251 0.0062488280973 0.0061815559827 0.0060208706569 0.0057944466181 
0.0055302428406 0.0052543943633 0.0049887670728 0.0047496254661 0.0045480935603 0.0043916550635 0.0042854728523 0.0042330743449 0.0042367301096 
0.0042978495586 0.0044173266716 0.0045956592641 0.0048328736269 0.0051284221842 0.0054811247379 0.0058890879408 0.0063495432767 0.006858638912 
0.0074112655696 0.0080009567513 0.0086198490328 0.0092586847353 0.009905902489 0.010549530492 0.011176990722 0.011775194943 0.01233096946 
0.012831531821 0.013265010547 0.013620999857 0.013891123825 0.014069564404 0.014153506062 0.014143466332 0.014043499062 0.01386126493 
0.013607966376 0.013298150309 0.012949392545 0.01258188198 0.012217904871 0.011881175683 0.011595818423 0.011384794286 0.011267269347 
0.011255909072 0.0064419843701 0.0063463637724 0.0061828775808 0.0059713694731 0.0057339346581 0.005491650355 0.0052614026144 0.0050551809927 
0.0048814157324 0.0047464795667 0.0046553106345 0.0046114962154 0.0046174685773 0.0046748913335 0.0047849309074 0.0049482898142 0.0051651552137 
0.0054351910195 0.0057575204401 0.0061306046557 0.0065520362048 0.0070183471773 0.0075248952402 0.0080658117346 0.0086339721935 0.0092209917458 
0.0098158005761 0.010407432377 0.010984341095 0.011534505219 0.012045825379 0.012506566428 0.012905849861 0.013234184942 0.013483999426 
0.013650119901 0.013730164793 0.013724831351 0.013638064499 0.013477093541 0.01325232531 0.012977094618 0.012667287191 0.01234085411 
0.012017225082 0.011716604247 0.011459104738 0.011263756795 0.011147614401 0.011126113513 0.0067273167673 0.0065780334234 0.0063873424556 
0.0061694313173 0.0059412193999 0.005717731866 0.0055099204567 0.0053254687147 0.0051705254267 0.0050504660203 0.0049696627863 0.0049312601554 
0.0049374316732 0.0049897926556 0.0050895822388 0.0052376415463 0.0054343927583 0.0056798522267 0.0059735642191 0.0063144161309 0.0067004269218 
0.0071286045511 0.0075948754184 0.0080940306977 0.0086196633388 0.0091641338204 0.0097167410425 0.010267286051 0.010804962728 0.011318474009 
0.011796401775 0.012227632567 0.012601844931 0.012910033422 0.013145020147 0.013301908308 0.013378451431 0.013375322231 0.013296261169 
0.013148081609 0.012940518036 0.012685922613 0.012398831248 0.012095424816 0.011792907805 0.011508824262 0.011260342761 0.011063601277 
0.010933324191 0.010883158727 0.0070638966606 0.0068466915955 0.0066144090475 0.0063768250327 0.006145071469 0.0059276734611 0.0057302445735 
0.0055572326646 0.0054130897918 0.0053020097058 0.0052272413157 0.0051909988168 0.0051949066862 0.005240373894 0.0053286447986 0.0054607213313 
0.0056373366801 0.0058589256528 0.0061254877823 0.0064363746847 0.0067901102359 0.0071842859833 0.0076154844333 0.0080791791768 0.0085696262296 
0.0090798126233 0.0095993443479 0.010118560684 0.010627155993 0.01111426707 0.011568823089 0.011979971505 0.01233757471 0.012632737588 
0.012858314299 0.01300935738 0.01308348809 0.013081165938 0.013005826896 0.012863862244 0.012664427216 0.012419090817 0.012141353247 
0.011846063179 0.011548770415 0.01126505535 0.011009887681 0.010797084679 0.010638956564 0.010546159727 0.0074165649867 0.007125802872 
0.0068447603487 0.0065790004123 0.0063336762011 0.0061116326802 0.0059146055833 0.005744816714 0.0056050898988 0.0054979420517 0.0054250308694 
0.0053874341607 0.0053861855048 0.0054224829031 0.0054975833437 0.0056126751817 0.0057688255697 0.0059668943847 0.0062073532032 0.0064900794447 
0.0068142032036 0.0071779954413 0.0075787402861 0.0080125772645 0.0084743651453 0.0089576339506 0.0094522938638 0.0099490065556 0.010437770391 
0.010907907441 0.011348407935 0.011748370599 0.012097516747 0.0123867288 0.012608566624 0.012757732898 0.01283146446 0.012829816891 
0.012755803096 0.012615356692 0.012417113248 0.012172024557 0.011892835272 0.011593459861 0.011288306086 0.010991598579 0.010716756998 
0.010475872236 0.010279284363 0.010135145598 0.0077567467384 0.0073917741255 0.0070587791302 0.0067590863211 0.0064925720444 0.0062578787645 
0.0060541146769 0.0058816092148 0.0057412070905 0.0056333563966 0.0055580325752 0.0055152917616 0.0055056878719 0.0055302434327 0.0055902258935 
0.0056870032911 0.0058219706102 0.0059964218166 0.0062113493755 0.0064672448218 0.0067639363936 0.007100429284 0.0074747149391 0.007883574179 
0.008322437186 0.0087853421255 0.0092625550206 0.0097448450393 0.01022234756 0.010684357967 0.011119685787 0.011517116441 0.011865944067 
0.012156526394 0.012380824774 0.012532904238 0.012609362423 0.012609643121 0.012536189539 0.012394408472 0.012192440219 0.011940749918 
0.011651570796 0.011338242828 0.01101450237 0.01069378479 0.01038859444 0.010109971285 0.0098670301765 0.0096664585186 0.0080606327052 
0.0076230922699 0.0072370390388 0.0068997982172 0.006607107487 0.0063546591504 0.0061394795684 0.0059598375349 0.005814297395 0.0057012353815 
0.0056191970686 0.005567462576 0.0055462061224 0.0055562714508 0.0055989146777 0.0056756790983 0.005788305673 0.0059385700815 0.0061280621498 
0.0063579695116 0.0066288750074 0.0069405382785 0.0072916586533 0.0076796625872 0.0081005647246 0.0085489141018 0.0090154274681 0.0094907581758 
0.0099650416242 0.010427376871 0.010866196755 0.011269747619 0.011626637867 0.011926415434 0.012160146238 0.012320965591 0.012404559899 
0.012409524847 0.01233755177 0.012193412774 0.011984737844 0.011721597127 0.011415919265 0.011080794697 0.010729727926 0.010375908139 
0.010031555376 0.0097073699704 0.0094120620171 0.0091518701077 0.0083075226964 0.0078001244337 0.0073613110922 0.0069848576287 0.0066633664307 
0.0063902436505 0.0061604618422 0.0059700174174 0.005815213586 0.0056926653165 0.0055998364322 0.0055354122727 0.0054992104119 0.0054918743226 
0.0055146553343 0.0055693124819 0.0056579935695 0.005783028621 0.005946677131 0.006150877916 0.0063969999854 0.0066855784355 0.0070160508963 
0.0073865352328 0.0077936755925 0.0082325512333 0.0086944667645 0.009169737663 0.0096484056027 0.010119253011 0.010570182312 0.010988703665 
0.011362497334 0.011680022739 0.011931149687 0.012107775575 0.012204374718 0.012218419505 0.012150622273 0.012004965082 0.011788505244 
0.011510965026 0.011184135813 0.010821150135 0.010435692775 0.010041227434 0.009650302539 0.0092739696925 0.0089213017515 0.0085989414197 
0.0084790320697 0.0079051402357 0.0074149245236 0.0069991059515 0.0066478057803 0.0063523558412 0.0061055611789 0.0059011317113 0.0057333760438 
0.0055975232707 0.0054902043055 0.0054095794465 0.0053551043357 0.0053272432332 0.005327309452 0.0053573622822 0.0054200358625 0.0055182821458 
0.0056550840849 0.005833173209 0.0060547438219 0.0063211571919 0.0066326566814 0.0069881243648 0.0073848917465 0.0078185982949 0.0082813323372 
0.0087628743272 0.0092531324809 0.0097405003461 0.010212230188 0.01065491947 0.011055088864 0.011399832359 0.011677512485 0.011878454987 
0.011995581316 0.012024914583 0.011965903693 0.01182152558 0.011598144462 0.011305129247 0.010954257003 0.01055895829 0.010133481267 
0.009692058349 0.0092481482809 0.008813797259 0.0083991194691 0.0080118466442 0.0085586519484 0.0079220032613 0.0073824177009 0.0069280449466 
0.0065468747503 0.0062281628252 0.0059624847015 0.0057414113427 0.0055575746964 0.0054050954237 0.0052798935016 0.0051796278381 0.0051034263329 
0.0050516601527 0.0050258137076 0.005028341127 0.0050624326603 0.0051317162361 0.0052399480602 0.0053907070161 0.0055870795253 0.0058313343198 
0.0061246093669 0.006466634198 0.0068554957811 0.0072874489589 0.0077556410548 0.0082491662292 0.0087578131998 0.009269556499 0.0097709084029 
0.010247398567 0.010684170219 0.011066676752 0.011381446981 0.011616867063 0.011763913762 0.011816771259 0.011773269011 0.011635089345 
0.011407710991 0.011100079455 0.010724026588 0.010293494457 0.00982364428 0.0093299418791 0.0088273041697 0.0083293641247 0.0078478704771 
0.0073921901041 0.0085312367033 0.0078356889698 0.0072491777417 0.0067576932005 0.0063472091918 0.0060048205435 0.0057188814513 0.0054790246773 
0.005276464355 0.0051043774762 0.0049580328003 0.0048346314176 0.0047330637853 0.0046537312533 0.0045984003887 0.0045699981223 0.0045723271966 
0.0046097466386 0.004686851387 0.0048081458741 0.0049776978175 0.0051987798015 0.0054735223638 0.0058025971149 0.0061849378134 0.006617510984 
0.0070948951829 0.0076053956876 0.0081387467872 0.0086825166083 0.0092224237679 0.0097428055365 0.010227230255 0.010659238804 0.011023181269 
0.011305095526 0.011493561553 0.011580459013 0.011561555024 0.011436855738 0.011210671525 0.010891372237 0.010490844725 0.010023702708 
0.0095063310361 0.0089558637715 0.0083891946748 0.0078220959322 0.0072684817569 0.0067398064812 0.0083825558839 0.0076320633118 0.007001465369 
0.0064748299586 0.0060360509574 0.0056699646718 0.0053627722281 0.0051023707108 0.0048787434977 0.0046842197555 0.0045134678062 0.0043633099591 
0.0042325190583 0.0041216471552 0.004032831232 0.0039695313852 0.0039362195331 0.0039380551917 0.0039805550248 0.0040692402397 0.0042092568198 
0.0044049852063 0.0046596608532 0.0049750171024 0.005350957603 0.0057852763806 0.0062745277157 0.0068061064174 0.0073698358388 0.0079529451491 
0.0085403548286 0.0091151276304 0.0096590877709 0.010153598708 0.010580469226 0.010922937905 0.011166670039 0.011300688321 0.01131815103 
0.011216893108 0.010999659244 0.010673985395 0.010251724032 0.0097482522598 0.0091814424668 0.0085705027134 0.0079348026709 0.0072927853382 
0.0066610287346 0.0060534753843 0.0080991894369 0.0072980015628 0.0066266226306 0.0060672167666 0.0056014561638 0.0052118835866 0.0048826794744 
0.0046001917741 0.0043532975368 0.0041335361581 0.0039350351943 0.0037543388857 0.003590220906 0.0034434798488 0.0033166873788 0.0032138908725 
0.0031402966155 0.0031019441876 0.0031053586853 0.0031571690279 0.0032637006532 0.0034305614418 0.0036622321925 0.0039616646478 0.0043298964343 
0.0047657080389 0.0052681165947 0.0058237182411 0.0064226171344 0.0070518249698 0.0076955189312 0.0083354591186 0.0089515950713 0.0095228646188 
0.010028163585 0.010447442873 0.010762868036 0.010959956033 0.011028588573 0.010963796468 0.010766218319 0.010442162279 0.010003240431 
0.0094655957955 0.008848793867 0.0081744927114 0.0074650282027 0.0067420466656 0.0060252866942 0.0053315657596 0.0076687366382 0.0068215875401 
0.0061131649966 0.0055236211387 0.0050323208341 0.0046195882571 0.004267755589 0.0039617645392 0.0036894527481 0.0034416115453 0.003211902626 
0.0029966990735 0.0027948737085 0.0026075379584 0.0024377456139 0.0022901843998 0.0021708624373 0.0020867746446 0.002045533109 0.002054963875 
0.0021226854131 0.0022556778801 0.0024598404859 0.0027395365817 0.0030971432246 0.0035326443224 0.0040477182601 0.0046288116062 0.0052664871245 
0.0059477079943 0.0066560340628 0.0073719645363 0.008073499882 0.0087369390085 0.0093379005925 0.009852533624 0.010258855226 0.010538125427 
0.01067614433 0.010664342657 0.010500537222 0.010189243005 0.0097414742087 0.0091740241929 0.0085082804297 0.0077686923404 0.0069810527756 
0.0061707665759 0.0053612586172 0.0045726278259 0.0070800785878 0.0061922001796 0.0054507595926 0.0048338169815 0.0043184758863 0.0038830002766 
0.0035080298719 0.0031771804124 0.0028772835849 0.0025984358862 0.0023339257361 0.0020800519516 0.0018358525266 0.0016027892435 0.0013844326882 
0.0011861587483 0.001014834987 0.00087847248509 0.00078584027305 0.00074605627985 0.00076816300973 0.00086068006396 0.001031122676 0.0012854901026 
0.0016277403368 0.002059257155 0.0025843397817 0.0031906437319 0.0038691902848 0.0046071315464 0.0053876376165 0.0061900848799 0.0069905322544 
0.0077624871771 0.0084779582758 0.0091087713325 0.0096280936704 0.010012075562 0.010241482072 0.010303161313 0.010191182687 0.0099074889949 
0.0094619435486 0.0088717173067 0.0081600441256 0.0073544594285 0.0064847092186 0.0055805544428 0.0046696901452 0.0037759541805 0.0063235301656 
0.0054005359712 0.0046302651096 0.0039887276528 0.0034509207546 0.0029932189502 0.0025946717979 0.002237609839 0.0019079032409 0.001595036964 
0.0012920217847 0.00099514736915 0.00070364314872 0.00041933407328 0.00014633080249 -0.0001092669348 -0.00033969252907 -0.00053587354299 -0.00068781810059 
-0.00078501503823 -0.00081685776038 -0.00077311221864 -0.00064443542356 -0.00042292966159 -0.00010271507497 0.0003194602788 0.0008485525558 0.0014780015007 
0.0021976470582 0.0029953638641 0.0038543275469 0.0047530585541 0.0056657926419 0.0065631844433 0.0074133617092 0.0081833267851 0.0088406649206 
0.009355473518 0.0097023780479 0.0098624558748 0.0098248584035 0.00958791608 0.0091595393147 0.0085567957212 0.0078046454133 0.0069339351507 
0.0059788632158 0.0049742023645 0.0039525873832 0.0029421333391 0.0053909217103 0.0044386902607 0.0036438969981 0.0029806595385 0.002422062714 
0.0019427291027 0.0015201850733 0.0011355290282 0.00077375429828 0.00042383390104 7.8568400656e-05 -0.00026574455246 -0.00060969299646 -0.0009510915868 
-0.0012852773084 -0.0016054090978 -0.0019028030515 -0.0021672944199 -0.002387607754 -0.0025517409311 -0.002647390869 -0.0026624415422 -0.0025855087527 
-0.0024065175752 -0.0021172803335 -0.0017120022987 -0.0011874275793 -0.00053932813649 0.00021919655837 0.0010775295837 0.002019385366 0.0030228270951 
0.0040605184476 0.0051003236626 0.0061063190718 0.0070402437041 0.0078633726437 0.0085387420947 0.0090335916731 0.0093218238932 0.0093862250918 
0.0092201618453 0.0088284784056 0.0082273854723 0.0074432492699 0.0065103469143 0.0054678176886 0.0043561693087 0.00321375657 0.0020736200571 
0.0042757073481 0.0033003145363 0.0024854256093 0.0018034869412 0.0012258587932 0.0007255261259 0.00027857309152 -0.00013503513065 -0.00053106990702 
-0.00092099251486 -0.0013121972884 -0.0017084044769 -0.0021100464837 -0.0025145876015 -0.0029168154369 -0.0033091551762 -0.0036820113885 -0.0040241126846 
-0.0043228534748 -0.0045646611442 -0.0047354234677 -0.0048209878887 -0.004807721725 -0.0046831202813 -0.0044364566934 -0.0040594616478 -0.0035470135569 
-0.002888867565 -0.002096862572 -0.0011798919779 -0.00015318354309 0.00096138166963 0.0021352987032 0.003333863821 0.004517077742 0.0056410874973 
0.0066601839551 0.0075293104687 0.0082069592149 0.0086582418624 0.0088578337665 0.0087924262442 0.0084623039847 0.0078817162777 0.0070778416324 
0.0060883447046 0.0049577556222 0.0037331074996 0.0024593871963 0.0011753479275 0.0029731154723 0.0019807760018 0.0011503114395 0.00045274438877 
-0.0001421069302 -0.00066276520098 -0.0011344613438 -0.001578229055 -0.0020105054321 -0.0024431597341 -0.0028838137317 -0.0033362510628 -0.0038007780787 
-0.0042745291249 -0.0047517721528 -0.005224238773 -0.0056814548249 -0.0061110502779 -0.0064990675554 -0.0068303114016 -0.0070887694742 -0.0072581067341 
-0.0073222291679 -0.0072659239433 -0.0070755950359 -0.0067401261606 -0.0062519748606 -0.0055945112806 -0.0047775893247 -0.0038072116822 -0.0026967746173 
-0.0014674136557 -0.00014820996462 0.0012239893648 0.0026052840619 0.0039460729013 0.0051931077055 0.0062922455122 0.0071918023709 0.0078462961896 
0.0082202403905 0.0082915392103 0.0080539729445 0.0075182831404 0.0067114993471 0.0056743908533 0.0044572410179 0.0031144522861 0.0016987023527 
0.00025541097868 0.0014802903955 0.00047726440778 -0.00036422773508 -0.0010743215998 -0.0016845402442 -0.0022247417331 -0.00272130465 -0.0031961289356 
-0.0036662633152 -0.0041440082886 -0.004637267659 -0.0051499338648 -0.0056822223831 -0.0062309849956 -0.006790039351 -0.0073504996668 -0.0079010738944 
-0.0084283286158 -0.0089169633553 -0.0093501377264 -0.0097098697685 -0.0099775083934 -0.010134289631 -0.010161998013 -0.010043753275 -0.0097649298627 
-0.0093141894937 -0.0086734539309 -0.007844066065 -0.0068292373384 -0.0056398651094 -0.0042955141497 -0.0028250426448 -0.0012667766892 0.0003319092885 
0.0019157502645 0.0034236026194 0.0047913640181 0.0059557524977 0.0068587547509 0.0074523846496 0.0077032232109 0.0075960834648 0.0071361112295 
0.0063487442531 0.0052772286179 0.0039778015384 0.0025130995346 0.00094470204789 -0.00067415776962 -0.00020361277902 -0.0012111516778 -0.0020591810406 
-0.0027787055321 -0.0034023516948 -0.0039610976695 -0.0044822896739 -0.0049885931451 -0.0054976619023 -0.006022277523 -0.0065706822912 -0.0071469264877 
-0.0077511969214 -0.0083801554944 -0.0090272826483 -0.0096831834008 -0.010335835038 -0.010970805582 -0.011571493257 -0.012119419982 -0.012594591047 
-0.012975933112 -0.013241834765 -0.013370816969 -0.013342349084 -0.013137810797 -0.012741600291 -0.012135548748 -0.011309236095 -0.010262731737 
-0.0090033305385 -0.0075479512997 -0.0059241877522 -0.0041709085325 -0.0023382345249 -0.00048669964326 0.0013145881234 0.0029909157379 0.0044660896866 
0.0056675790721 0.0065323259601 0.0070126312081 0.0070813077598 0.0067351742775 0.0059960198349 0.0049084604605 0.0035346202109 0.001946197236 
0.00021502702916 -0.0015964817543 -0.0020773819114 -0.0030835072767 -0.0039337407718 -0.0046596349203 -0.0052946362615 -0.005870597725 -0.0064156648082 
-0.0069532078959 -0.0075015120961 -0.0080739002527 -0.0086790168694 -0.0093211479076 -0.010000564032 -0.010713880913 -0.011454390722 -0.012212321707 
-0.012975032634 -0.013727188294 -0.014450959543 -0.015126269858 -0.015731103624 -0.016241901556 -0.016634076933 -0.016882680671 -0.016963227605 
-0.016852671099 -0.016530438663 -0.015979131119 -0.015174920528 -0.014113550565 -0.012797488639 -0.011239762932 -0.0094654432945 -0.007512727557 
-0.0054334218624 -0.0032925613569 -0.0011669082944 0.00085789962173 0.0026916802682 0.0042454723408 0.0054384332658 0.0062052489079 0.006503105268 
0.0063170261932 0.0056623363862 0.0045832722612 0.0031473671224 0.001436080299 -0.00046702801789 -0.0024887807027 -0.0041377524755 -0.0051369839027 
-0.0059853753197 -0.006714657971 -0.0073587643965 -0.0079501609072 -0.0085176488044 -0.0090852803889 -0.0096720230377 -0.010291819383 -0.01095381427 
-0.011662663154 -0.012418891943 -0.013219255468 -0.014057030596 -0.014922221401 -0.015801706327 -0.016679372869 -0.017536269762 -0.018350795086 
-0.019098945247 -0.019754660979 -0.020290308033 -0.020677323434 -0.020887052887 -0.020891807415 -0.020666192764 -0.02018891044 -0.01942929812 
-0.018373899237 -0.017019127238 -0.015372799879 -0.013456040779 -0.011304909163 -0.0089714917075 -0.0065241385108 -0.0040464925208 -0.0016349713303 
0.00060556304193 0.0025680386586 0.004151117018 0.0052682505676 0.0058567968675 0.0058857125764 0.0053601369828 0.0043213444011 0.00284120506 
0.0010113792668 -0.0010713221519 -0.0033211252039 -0.0063794923026 -0.0073670547707 -0.0082100156466 -0.0089398437845 -0.0095905722233 -0.010195017849 
-0.010782529745 -0.011377860056 -0.012000745477 -0.012665872307 -0.013383047907 -0.014157500139 -0.014990233767 -0.015878357637 -0.01681532562 
-0.017791092806 -0.018792222972 -0.019801979832 -0.02080042257 -0.021764528844 -0.022668380206 -0.023483450816 -0.024179037927 -0.024722869425 
-0.025081925022 -0.02522351478 -0.025116686409 -0.024734157914 -0.024044924214 -0.023019984928 -0.021648796285 -0.019932675141 -0.017887285497 
-0.015544871795 -0.01295606933 -0.010190917633 -0.0073386378692 -0.0045057095198 -0.001811820218 0.0006165896763 0.0026551677824 0.0041923867102 