# vtk DataFile Version 4.1
vtk output
ASCII
DATASET STRUCTURED_GRID
DIMENSIONS 51 51 1
POINTS 2601 float
0 0 0 0.02 0 0 0.04 0 0 
0.06 0 0 0.08 0 0 0.1 0 0 
0.12 0 0 0.14 0 0 0.16 0 0 
0.18 0 0 0.2 0 0 0.22 0 0 
0.24 0 0 0.26 0 0 0.28 0 0 
0.3 0 0 0.32 0 0 0.34 0 0 
0.36 0 0 0.38 0 0 0.4 0 0 
0.42 0 0 0.44 0 0 0.46 0 0 
0.48 0 0 0.5 0 0 0.52 0 0 
0.54 0 0 0.56 0 0 0.58 0 0 
0.6 0 0 0.62 0 0 0.64 0 0 
0.66 0 0 0.68 0 0 0.7 0 0 
0.72 0 0 0.74 0 0 0.76 0 0 
0.78 0 0 0.8 0 0 0.82 0 0 
0.84 0 0 0.86 0 0 0.88 0 0 
0.9 0 0 0.92 0 0 0.94 0 0 
0.96 0 0 0.98 0 0 1 0 0 
0 0.02 0 0.02 0.02 0 0.04 0.02 0 
0.06 0.02 0 0.08 0.02 0 0.1 0.02 0 
0.12 0.02 0 0.14 0.02 0 0.16 0.02 0 
0.18 0.02 0 0.2 0.02 0 0.22 0.02 0 
0.24 0.02 0 0.26 0.02 0 0.28 0.02 0 
0.3 0.02 0 0.32 0.02 0 0.34 0.02 0 
0.36 0.02 0 0.38 0.02 0 0.4 0.02 0 
0.42 0.02 0 0.44 0.02 0 0.46 0.02 0 
0.48 0.02 0 0.5 0.02 0 0.52 0.02 0 
0.54 0.02 0 0.56 0.02 0 0.58 0.02 0 
0.6 0.02 0 0.62 0.02 0 0.64 0.02 0 
0.66 0.02 0 0.68 0.02 0 0.7 0.02 0 
0.72 0.02 0 0.74 0.02 0 0.76 0.02 0 
0.78 0.02 0 0.8 0.02 0 0.82 0.02 0 
0.84 0.02 0 0.86 0.02 0 0.88 0.02 0 
0.9 0.02 0 0.92 0.02 0 0.94 0.02 0 
0.96 0.02 0 0.98 0.02 0 1 0.02 0 
0 0.04 0 0.02 0.04 0 0.04 0.04 0 
0.06 0.04 0 0.08 0.04 0 0.1 0.04 0 
0.12 0.04 0 0.14 0.04 0 0.16 0.04 0 
0.18 0.04 0 0.2 0.04 0 0.22 0.04 0 
0.24 0.04 0 0.26 0.04 0 0.28 0.04 0 
0.3 0.04 0 0.32 0.04 0 0.34 0.04 0 
0.36 0.04 0 0.38 0.04 0 0.4 0.04 0 
0.42 0.04 0 0.44 0.04 0 0.46 0.04 0 
0.48 0.04 0 0.5 0.04 0 0.52 0.04 0 
0.54 0.04 0 0.56 0.04 0 0.58 0.04 0 
0.6 0.04 0 0.62 0.04 0 0.64 0.04 0 
0.66 0.04 0 0.68 0.04 0 0.7 0.04 0 
0.72 0.04 0 0.74 0.04 0 0.76 0.04 0 
0.78 0.04 0 0.8 0.04 0 0.82 0.04 0 
0.84 0.04 0 0.86 0.04 0 0.88 0.04 0 
0.9 0.04 0 0.92 0.04 0 0.94 0.04 0 
0.96 0.04 0 0.98 0.04 0 1 0.04 0 
0 0.06 0 0.02 0.06 0 0.04 0.06 0 
0.06 0.06 0 0.08 0.06 0 0.1 0.06 0 
0.12 0.06 0 0.14 0.06 0 0.16 0.06 0 
0.18 0.06 0 0.2 0.06 0 0.22 0.06 0 
0.24 0.06 0 0.26 0.06 0 0.28 0.06 0 
0.3 0.06 0 0.32 0.06 0 0.34 0.06 0 
0.36 0.06 0 0.38 0.06 0 0.4 0.06 0 
0.42 0.06 0 0.44 0.06 0 0.46 0.06 0 
0.48 0.06 0 0.5 0.06 0 0.52 0.06 0 
0.54 0.06 0 0.56 0.06 0 0.58 0.06 0 
0.6 0.06 0 0.62 0.06 0 0.64 0.06 0 
0.66 0.06 0 0.68 0.06 0 0.7 0.06 0 
0.72 0.06 0 0.74 0.06 0 0.76 0.06 0 
0.78 0.06 0 0.8 0.06 0 0.82 0.06 0 
0.84 0.06 0 0.86 0.06 0 0.88 0.06 0 
0.9 0.06 0 0.92 0.06 0 0.94 0.06 0 
0.96 0.06 0 0.98 0.06 0 1 0.06 0 
0 0.08 0 0.02 0.08 0 0.04 0.08 0 
0.06 0.08 0 0.08 0.08 0 0.1 0.08 0 
0.12 0.08 0 0.14 0.08 0 0.16 0.08 0 
0.18 0.08 0 0.2 0.08 0 0.22 0.08 0 
0.24 0.08 0 0.26 0.08 0 0.28 0.08 0 
0.3 0.08 0 0.32 0.08 0 0.34 0.08 0 
0.36 0.08 0 0.38 0.08 0 0.4 0.08 0 
0.42 0.08 0 0.44 0.08 0 0.46 0.08 0 
0.48 0.08 0 0.5 0.08 0 0.52 0.08 0 
0.54 0.08 0 0.56 0.08 0 0.58 0.08 0 
0.6 0.08 0 0.62 0.08 0 0.64 0.08 0 
0.66 0.08 0 0.68 0.08 0 0.7 0.08 0 
0.72 0.08 0 0.74 0.08 0 0.76 0.08 0 
0.78 0.08 0 0.8 0.08 0 0.82 0.08 0 
0.84 0.08 0 0.86 0.08 0 0.88 0.08 0 
0.9 0.08 0 0.92 0.08 0 0.94 0.08 0 
0.96 0.08 0 0.98 0.08 0 1 0.08 0 
0 0.1 0 0.02 0.1 0 0.04 0.1 0 
0.06 0.1 0 0.08 0.1 0 0.1 0.1 0 
0.12 0.1 0 0.14 0.1 0 0.16 0.1 0 
0.18 0.1 0 0.2 0.1 0 0.22 0.1 0 
0.24 0.1 0 0.26 0.1 0 0.28 0.1 0 
0.3 0.1 0 0.32 0.1 0 0.34 0.1 0 
0.36 0.1 0 0.38 0.1 0 0.4 0.1 0 
0.42 0.1 0 0.44 0.1 0 0.46 0.1 0 
0.48 0.1 0 0.5 0.1 0 0.52 0.1 0 
0.54 0.1 0 0.56 0.1 0 0.58 0.1 0 
0.6 0.1 0 0.62 0.1 0 0.64 0.1 0 
0.66 0.1 0 0.68 0.1 0 0.7 0.1 0 
0.72 0.1 0 0.74 0.1 0 0.76 0.1 0 
0.78 0.1 0 0.8 0.1 0 0.82 0.1 0 
0.84 0.1 0 0.86 0.1 0 0.88 0.1 0 
0.9 0.1 0 0.92 0.1 0 0.94 0.1 0 
0.96 0.1 0 0.98 0.1 0 1 0.1 0 
0 0.12 0 0.02 0.12 0 0.04 0.12 0 
0.06 0.12 0 0.08 0.12 0 0.1 0.12 0 
0.12 0.12 0 0.14 0.12 0 0.16 0.12 0 
0.18 0.12 0 0.2 0.12 0 0.22 0.12 0 
0.24 0.12 0 0.26 0.12 0 0.28 0.12 0 
0.3 0.12 0 0.32 0.12 0 0.34 0.12 0 
0.36 0.12 0 0.38 0.12 0 0.4 0.12 0 
0.42 0.12 0 0.44 0.12 0 0.46 0.12 0 
0.48 0.12 0 0.5 0.12 0 0.52 0.12 0 
0.54 0.12 0 0.56 0.12 0 0.58 0.12 0 
0.6 0.12 0 0.62 0.12 0 0.64 0.12 0 
0.66 0.12 0 0.68 0.12 0 0.7 0.12 0 
0.72 0.12 0 0.74 0.12 0 0.76 0.12 0 
0.78 0.12 0 0.8 0.12 0 0.82 0.12 0 
0.84 0.12 0 0.86 0.12 0 0.88 0.12 0 
0.9 0.12 0 0.92 0.12 0 0.94 0.12 0 
0.96 0.12 0 0.98 0.12 0 1 0.12 0 
0 0.14 0 0.02 0.14 0 0.04 0.14 0 
0.06 0.14 0 0.08 0.14 0 0.1 0.14 0 
0.12 0.14 0 0.14 0.14 0 0.16 0.14 0 
0.18 0.14 0 0.2 0.14 0 0.22 0.14 0 
0.24 0.14 0 0.26 0.14 0 0.28 0.14 0 
0.3 0.14 0 0.32 0.14 0 0.34 0.14 0 
0.36 0.14 0 0.38 0.14 0 0.4 0.14 0 
0.42 0.14 0 0.44 0.14 0 0.46 0.14 0 
0.48 0.14 0 0.5 0.14 0 0.52 0.14 0 
0.54 0.14 0 0.56 0.14 0 0.58 0.14 0 
0.6 0.14 0 0.62 0.14 0 0.64 0.14 0 
0.66 0.14 0 0.68 0.14 0 0.7 0.14 0 
0.72 0.14 0 0.74 0.14 0 0.76 0.14 0 
0.78 0.14 0 0.8 0.14 0 0.82 0.14 0 
0.84 0.14 0 0.86 0.14 0 0.88 0.14 0 
0.9 0.14 0 0.92 0.14 0 0.94 0.14 0 
0.96 0.14 0 0.98 0.14 0 1 0.14 0 
0 0.16 0 0.02 0.16 0 0.04 0.16 0 
0.06 0.16 0 0.08 0.16 0 0.1 0.16 0 
0.12 0.16 0 0.14 0.16 0 0.16 0.16 0 
0.18 0.16 0 0.2 0.16 0 0.22 0.16 0 
0.24 0.16 0 0.26 0.16 0 0.28 0.16 0 
0.3 0.16 0 0.32 0.16 0 0.34 0.16 0 
0.36 0.16 0 0.38 0.16 0 0.4 0.16 0 
0.42 0.16 0 0.44 0.16 0 0.46 0.16 0 
0.48 0.16 0 0.5 0.16 0 0.52 0.16 0 
0.54 0.16 0 0.56 0.16 0 0.58 0.16 0 
0.6 0.16 0 0.62 0.16 0 0.64 0.16 0 
0.66 0.16 0 0.68 0.16 0 0.7 0.16 0 
0.72 0.16 0 0.74 0.16 0 0.76 0.16 0 
0.78 0.16 0 0.8 0.16 0 0.82 0.16 0 
0.84 0.16 0 0.86 0.16 0 0.88 0.16 0 
0.9 0.16 0 0.92 0.16 0 0.94 0.16 0 
0.96 0.16 0 0.98 0.16 0 1 0.16 0 
0 0.18 0 0.02 0.18 0 0.04 0.18 0 
0.06 0.18 0 0.08 0.18 0 0.1 0.18 0 
0.12 0.18 0 0.14 0.18 0 0.16 0.18 0 
0.18 0.18 0 0.2 0.18 0 0.22 0.18 0 
0.24 0.18 0 0.26 0.18 0 0.28 0.18 0 
0.3 0.18 0 0.32 0.18 0 0.34 0.18 0 
0.36 0.18 0 0.38 0.18 0 0.4 0.18 0 
0.42 0.18 0 0.44 0.18 0 0.46 0.18 0 
0.48 0.18 0 0.5 0.18 0 0.52 0.18 0 
0.54 0.18 0 0.56 0.18 0 0.58 0.18 0 
0.6 0.18 0 0.62 0.18 0 0.64 0.18 0 
0.66 0.18 0 0.68 0.18 0 0.7 0.18 0 
0.72 0.18 0 0.74 0.18 0 0.76 0.18 0 
0.78 0.18 0 0.8 0.18 0 0.82 0.18 0 
0.84 0.18 0 0.86 0.18 0 0.88 0.18 0 
0.9 0.18 0 0.92 0.18 0 0.94 0.18 0 
0.96 0.18 0 0.98 0.18 0 1 0.18 0 
0 0.2 0 0.02 0.2 0 0.04 0.2 0 
0.06 0.2 0 0.08 0.2 0 0.1 0.2 0 
0.12 0.2 0 0.14 0.2 0 0.16 0.2 0 
0.18 0.2 0 0.2 0.2 0 0.22 0.2 0 
0.24 0.2 0 0.26 0.2 0 0.28 0.2 0 
0.3 0.2 0 0.32 0.2 0 0.34 0.2 0 
0.36 0.2 0 0.38 0.2 0 0.4 0.2 0 
0.42 0.2 0 0.44 0.2 0 0.46 0.2 0 
0.48 0.2 0 0.5 0.2 0 0.52 0.2 0 
0.54 0.2 0 0.56 0.2 0 0.58 0.2 0 
0.6 0.2 0 0.62 0.2 0 0.64 0.2 0 
0.66 0.2 0 0.68 0.2 0 0.7 0.2 0 
0.72 0.2 0 0.74 0.2 0 0.76 0.2 0 
0.78 0.2 0 0.8 0.2 0 0.82 0.2 0 
0.84 0.2 0 0.86 0.2 0 0.88 0.2 0 
0.9 0.2 0 0.92 0.2 0 0.94 0.2 0 
0.96 0.2 0 0.98 0.2 0 1 0.2 0 
0 0.22 0 0.02 0.22 0 0.04 0.22 0 
0.06 0.22 0 0.08 0.22 0 0.1 0.22 0 
0.12 0.22 0 0.14 0.22 0 0.16 0.22 0 
0.18 0.22 0 0.2 0.22 0 0.22 0.22 0 
0.24 0.22 0 0.26 0.22 0 0.28 0.22 0 
0.3 0.22 0 0.32 0.22 0 0.34 0.22 0 
0.36 0.22 0 0.38 0.22 0 0.4 0.22 0 
0.42 0.22 0 0.44 0.22 0 0.46 0.22 0 
0.48 0.22 0 0.5 0.22 0 0.52 0.22 0 
0.54 0.22 0 0.56 0.22 0 0.58 0.22 0 
0.6 0.22 0 0.62 0.22 0 0.64 0.22 0 
0.66 0.22 0 0.68 0.22 0 0.7 0.22 0 
0.72 0.22 0 0.74 0.22 0 0.76 0.22 0 
0.78 0.22 0 0.8 0.22 0 0.82 0.22 0 
0.84 0.22 0 0.86 0.22 0 0.88 0.22 0 
0.9 0.22 0 0.92 0.22 0 0.94 0.22 0 
0.96 0.22 0 0.98 0.22 0 1 0.22 0 
0 0.24 0 0.02 0.24 0 0.04 0.24 0 
0.06 0.24 0 0.08 0.24 0 0.1 0.24 0 
0.12 0.24 0 0.14 0.24 0 0.16 0.24 0 
0.18 0.24 0 0.2 0.24 0 0.22 0.24 0 
0.24 0.24 0 0.26 0.24 0 0.28 0.24 0 
0.3 0.24 0 0.32 0.24 0 0.34 0.24 0 
0.36 0.24 0 0.38 0.24 0 0.4 0.24 0 
0.42 0.24 0 0.44 0.24 0 0.46 0.24 0 
0.48 0.24 0 0.5 0.24 0 0.52 0.24 0 
0.54 0.24 0 0.56 0.24 0 0.58 0.24 0 
0.6 0.24 0 0.62 0.24 0 0.64 0.24 0 
0.66 0.24 0 0.68 0.24 0 0.7 0.24 0 
0.72 0.24 0 0.74 0.24 0 0.76 0.24 0 
0.78 0.24 0 0.8 0.24 0 0.82 0.24 0 
0.84 0.24 0 0.86 0.24 0 0.88 0.24 0 
0.9 0.24 0 0.92 0.24 0 0.94 0.24 0 
0.96 0.24 0 0.98 0.24 0 1 0.24 0 
0 0.26 0 0.02 0.26 0 0.04 0.26 0 
0.06 0.26 0 0.08 0.26 0 0.1 0.26 0 
0.12 0.26 0 0.14 0.26 0 0.16 0.26 0 
0.18 0.26 0 0.2 0.26 0 0.22 0.26 0 
0.24 0.26 0 0.26 0.26 0 0.28 0.26 0 
0.3 0.26 0 0.32 0.26 0 0.34 0.26 0 
0.36 0.26 0 0.38 0.26 0 0.4 0.26 0 
0.42 0.26 0 0.44 0.26 0 0.46 0.26 0 
0.48 0.26 0 0.5 0.26 0 0.52 0.26 0 
0.54 0.26 0 0.56 0.26 0 0.58 0.26 0 
0.6 0.26 0 0.62 0.26 0 0.64 0.26 0 
0.66 0.26 0 0.68 0.26 0 0.7 0.26 0 
0.72 0.26 0 0.74 0.26 0 0.76 0.26 0 
0.78 0.26 0 0.8 0.26 0 0.82 0.26 0 
0.84 0.26 0 0.86 0.26 0 0.88 0.26 0 
0.9 0.26 0 0.92 0.26 0 0.94 0.26 0 
0.96 0.26 0 0.98 0.26 0 1 0.26 0 
0 0.28 0 0.02 0.28 0 0.04 0.28 0 
0.06 0.28 0 0.08 0.28 0 0.1 0.28 0 
0.12 0.28 0 0.14 0.28 0 0.16 0.28 0 
0.18 0.28 0 0.2 0.28 0 0.22 0.28 0 
0.24 0.28 0 0.26 0.28 0 0.28 0.28 0 
0.3 0.28 0 0.32 0.28 0 0.34 0.28 0 
0.36 0.28 0 0.38 0.28 0 0.4 0.28 0 
0.42 0.28 0 0.44 0.28 0 0.46 0.28 0 
0.48 0.28 0 0.5 0.28 0 0.52 0.28 0 
0.54 0.28 0 0.56 0.28 0 0.58 0.28 0 
0.6 0.28 0 0.62 0.28 0 0.64 0.28 0 
0.66 0.28 0 0.68 0.28 0 0.7 0.28 0 
0.72 0.28 0 0.74 0.28 0 0.76 0.28 0 
0.78 0.28 0 0.8 0.28 0 0.82 0.28 0 
0.84 0.28 0 0.86 0.28 0 0.88 0.28 0 
0.9 0.28 0 0.92 0.28 0 0.94 0.28 0 
0.96 0.28 0 0.98 0.28 0 1 0.28 0 
0 0.3 0 0.02 0.3 0 0.04 0.3 0 
0.06 0.3 0 0.08 0.3 0 0.1 0.3 0 
0.12 0.3 0 0.14 0.3 0 0.16 0.3 0 
0.18 0.3 0 0.2 0.3 0 0.22 0.3 0 
0.24 0.3 0 0.26 0.3 0 0.28 0.3 0 
0.3 0.3 0 0.32 0.3 0 0.34 0.3 0 
0.36 0.3 0 0.38 0.3 0 0.4 0.3 0 
0.42 0.3 0 0.44 0.3 0 0.46 0.3 0 
0.48 0.3 0 0.5 0.3 0 0.52 0.3 0 
0.54 0.3 0 0.56 0.3 0 0.58 0.3 0 
0.6 0.3 0 0.62 0.3 0 0.64 0.3 0 
0.66 0.3 0 0.68 0.3 0 0.7 0.3 0 
0.72 0.3 0 0.74 0.3 0 0.76 0.3 0 
0.78 0.3 0 0.8 0.3 0 0.82 0.3 0 
0.84 0.3 0 0.86 0.3 0 0.88 0.3 0 
0.9 0.3 0 0.92 0.3 0 0.94 0.3 0 
0.96 0.3 0 0.98 0.3 0 1 0.3 0 
0 0.32 0 0.02 0.32 0 0.04 0.32 0 
0.06 0.32 0 0.08 0.32 0 0.1 0.32 0 
0.12 0.32 0 0.14 0.32 0 0.16 0.32 0 
0.18 0.32 0 0.2 0.32 0 0.22 0.32 0 
0.24 0.32 0 0.26 0.32 0 0.28 0.32 0 
0.3 0.32 0 0.32 0.32 0 0.34 0.32 0 
0.36 0.32 0 0.38 0.32 0 0.4 0.32 0 
0.42 0.32 0 0.44 0.32 0 0.46 0.32 0 
0.48 0.32 0 0.5 0.32 0 0.52 0.32 0 
0.54 0.32 0 0.56 0.32 0 0.58 0.32 0 
[...]
CELL_DATA 2500
FIELD FieldData 1
pressure 1 2500 double
0.0061823212978 0.0061153990526 0.0059259855371 0.0056522810314 0.0053342527642 0.0050049758743 0.0046896159257 0.0044064367951 0.0041681871133 
0.0039833946983 0.0038574704918 0.0037936140241 0.0037935364274 0.0038580158426 0.0039872893397 0.0041812790349 0.0044396565948 0.0047617668831 
0.005146448735 0.0055918000984 0.0060949325717 0.0066517493722 0.0072567665412 0.0079029830921 0.0085817947488 0.0092829375287 0.0099940849885 
0.010702013939 0.011392793891 0.012051899815 0.012664634297 0.013216651355 0.013694547916 0.014086489214 0.014382832383 0.014576710737 
0.014664541833 0.014646426312 0.014526412211 0.014312610902 0.014017165217 0.013656085754 0.013248985003 0.01281874491 0.012391150209 
0.011994388926 0.011658289163 0.011412392643 0.011280787526 0.01126838012 0.0062503255101 0.0061845239681 0.0060224654092 0.0057939766043 
0.0055287790571 0.0052529884618 0.004987599827 0.0047484398489 0.0045468554405 0.0043906453436 0.004284976369 0.0042331724184 0.0042373381132 
0.0042988075944 0.0044184208769 0.0045966424538 0.0048335513915 0.0051287419971 0.005481174924 0.0058890109831 0.0063494486808 0.0068585773495 
0.0074112522296 0.0080009965097 0.0086199391267 0.0092588078678 0.0099060316029 0.010549646438 0.011177094093 0.011775299126 0.012331082598 
0.012831647095 0.013265113753 0.013621084107 0.013891195308 0.014069634999 0.014153582557 0.014143546952 0.014043578184 0.01386133913 
0.013608036045 0.013298217293 0.0129494577 0.012581944869 0.012217964834 0.011881232725 0.011595873267 0.011384847941 0.011267322705 
0.011255962893 0.0064461213844 0.0063480792349 0.0061812020074 0.0059683909493 0.0057317413129 0.0054907036107 0.005261100437 0.0050550814085 
0.0048816242259 0.0047472144889 0.0046564965184 0.0046128105205 0.0046185914616 0.0046756292108 0.0047852039982 0.0049481241663 0.0051646987769 
0.0054346726178 0.0057571399687 0.0061304432154 0.00655205844 0.0070184729039 0.0075250642268 0.0080659970464 0.0086341586567 0.0092211602514 
0.0098159356606 0.01040753643 0.010984432623 0.011534600935 0.012045925838 0.012506660134 0.012905929208 0.013234255381 0.013484073267 
0.013650203872 0.01373025513 0.013724919441 0.013638145072 0.013477167298 0.013252395575 0.012977163254 0.012667353673 0.012340917123 
0.012017284107 0.011716659909 0.011459158174 0.011263809094 0.011147666406 0.011126166014 0.0067304941903 0.0065768425407 0.0063840066106 
0.0061672321618 0.0059412311132 0.005718991594 0.005511268426 0.005326632339 0.0051717758452 0.0050518758285 0.0049709273328 0.0049320205111 
0.0049375494634 0.0049893496686 0.005088772237 0.0052367119122 0.0054336033506 0.0056793904008 0.0059734650157 0.0063145720898 0.0067006839294 
0.0071288574302 0.0075950933078 0.0080942202235 0.0086198268097 0.0091642621679 0.0097168327222 0.010267358135 0.010805038515 0.011318562901 
0.011796495003 0.012227717855 0.012601921764 0.012910112471 0.013145110301 0.013302007404 0.013378549543 0.013375411448 0.013296340955 
0.013148156157 0.012940590618 0.012685993109 0.012398897752 0.012095486157 0.01179296444 0.011508877626 0.011260394214 0.01106365173 
0.010933374303 0.010883209192 0.0070641259444 0.0068439035233 0.0066123556693 0.0063775197885 0.0061475886716 0.0059301426221 0.0057318088244 
0.0055581902413 0.0054139043721 0.0053026777128 0.0052274798414 0.0051906743298 0.0051941560504 0.0052394533464 0.0053277901852 0.0054601119385 
0.0056370753511 0.0058589980562 0.0061257638378 0.0064366875907 0.00679035395 0.0071844493291 0.0076156083487 0.0080792942509 0.0085697297114 
0.0090798907646 0.0095994009585 0.010118618022 0.010627232257 0.01111435994 0.011568916858 0.011980056492 0.012337656113 0.012632826394 
0.01285841363 0.01300945968 0.01308358358 0.013081251106 0.013005904913 0.012863937361 0.012664500349 0.012419160014 0.012141416694 
0.011846120978 0.01154882412 0.011265106627 0.011009937506 0.010797133475 0.010639004748 0.010546207927 0.0074145762604 0.0071236260704 
0.0068451929815 0.006581729285 0.006336528486 0.0061131111647 0.0059148343269 0.0057446515647 0.0056050032083 0.005497833226 0.0054246992463 
0.0053869166014 0.0053856831863 0.0054221579515 0.0054974889411 0.0056127942172 0.0057690968248 0.0059672145305 0.0062076100985 0.0064902149564 
0.0068142433969 0.0071780136339 0.0075787899034 0.0080126579425 0.0084744447511 0.0089576926887 0.0094523429659 0.0099490699683 0.010437856874 
0.010908004219 0.01134849795 0.011748450472 0.01209759655 0.012386817891 0.012608663528 0.012757828574 0.012831552015 0.012829896365 
0.012755878315 0.012615429836 0.012417183186 0.012172089214 0.011892894164 0.011593514294 0.011288357801 0.010991648585 0.01071680554 
0.010475919342 0.01027933039 0.010135191228 0.007754367016 0.0073911291723 0.0070606106726 0.0067615574015 0.0064937514332 0.00625747528 
0.0060531186846 0.0058809450038 0.00574103944 0.0056334021759 0.0055581061997 0.0055154410939 0.005505998014 0.0055306870316 0.0055906961503 
0.0056874020649 0.0058222394276 0.0059965361744 0.0062113258695 0.0064671498291 0.006763860194 0.0071004321359 0.0074747929448 0.0078836773324 
0.0083225201098 0.0087853986449 0.0092626095521 0.0097449191183 0.010222438684 0.010684447858 0.011119762539 0.01151718501 0.011866017235 
0.012156610085 0.012380913891 0.012532990118 0.01260944109 0.012609716317 0.012536260175 0.012394476931 0.012192504862 0.011940809644 
0.011651626208 0.01133829533 0.01101455293 0.010693833505 0.010388641106 0.010110015939 0.009867073312 0.0096665008897 0.0080589532404 
0.0076234309297 0.0072386269187 0.0069007116418 0.0066065353864 0.0063533422394 0.0061385671884 0.0059597881989 0.005814826391 0.0057019181347 
0.0056198717037 0.0055681552416 0.005546905444 0.0055568709825 0.005599307709 0.0056758363401 0.0057882700258 0.0059384201649 0.0061278894241 
0.0063578591202 0.006628875308 0.0069406375509 0.007291797687 0.0076797802722 0.0081006391568 0.0085489655083 0.0090154869997 0.0094908369417 
0.0099651268697 0.010427451598 0.010866258172 0.011269806934 0.011626706298 0.011926493715 0.012160226809 0.012321041501 0.012404629926 
0.012409591585 0.01233761716 0.012193476307 0.0119847981 0.011721653663 0.011415972728 0.011080845768 0.01072977672 0.010375954338 
0.010031598851 0.0097074110312 0.0094121012842 0.0091519082963 0.0083065879792 0.0078006307301 0.0073620303924 0.0069845995267 0.0066623058643 
0.0063894012148 0.0061605176022 0.0059708256679 0.0058162286344 0.005693527733 0.005600513866 0.0055359781338 0.0054996576951 0.005492135782 
0.0055147061511 0.005569206188 0.005657823367 0.0057828816317 0.005946613499 0.006150921463 0.0063971313822 0.0066857433792 0.0070161909719 
0.0073866231829 0.0077937258292 0.0082325977847 0.008694531161 0.0091698157856 0.0096484800761 0.010119313854 0.010570235023 0.010988760457 
0.011362564167 0.01168009565 0.01193122118 0.012107841931 0.0122044373 0.012218481143 0.012150683853 0.012005025379 0.011788562818 
0.011511019414 0.011184187209 0.010821198635 0.010435738207 0.010041269632 0.0096503416639 0.0092740062511 0.0089213363381 0.0085989745987 
0.0084785837119 0.0079055769718 0.0074151651586 0.0069986786673 0.0066472624915 0.0063524071415 0.0061062986007 0.0059020896747 0.0057340950764 
0.0055978994151 0.0054903848458 0.0054096989013 0.0053551800492 0.0053272472652 0.0053272525747 0.005357296733 0.0054200131141 0.0055183267438 
0.0056551939129 0.0058333262695 0.0060549041268 0.0063212876127 0.0066327386391 0.0069881687348 0.0073849281287 0.007818650713 0.008281403104 
0.0087629488769 0.0092531967657 0.0097405531614 0.010212280848 0.010654976589 0.011055152868 0.011399897671 0.011677574407 0.011878513395 
0.011995638941 0.01202497334 0.011965962985 0.011821583423 0.011598199309 0.011305180585 0.010954304847 0.010559002657 0.010133522108 
0.0096920957569 0.0092481825621 0.0088138288884 0.0083991488966 0.008011874266 0.008558648144 0.0079225427051 0.0073826686283 0.0069279204483 
0.0065468661904 0.006228567155 0.0059630883414 0.0057418109783 0.0055576050626 0.0054049028796 0.0052797078113 0.0051795591582 0.0051034570098 
0.0050517420888 0.0050259271989 0.0050284842822 0.0050625960726 0.0051318808634 0.0052400964379 0.0053908280739 0.005587166862 0.0058313878405 
0.0061246401971 0.0064666629478 0.0068555405687 0.0072875133193 0.007755713697 0.0082492326973 0.0087578676829 0.0092696039596 0.0097709572851 
0.010247452656 0.010684227131 0.011066732483 0.011381500361 0.011616919981 0.011763968372 0.011816827654 0.011773325293 0.011635143318 
0.011407761448 0.011100126164 0.010724069661 0.010293533974 0.0098236802619 0.0093299744622 0.0088273335912 0.0083293906913 0.0078478944882 
0.0073922118499 0.0085317155339 0.0078363816036 0.0072494813923 0.0067576947129 0.0063472520902 0.0060049849294 0.0057189633937 0.0054788567488 
0.0052761201012 0.0051040761752 0.0049579308963 0.0048347354063 0.0047332925332 0.0046540051601 0.0045986710235 0.0045702346232 0.0045725073 
0.0046098630957 0.0046869152117 0.004808177228 0.0049777146575 0.0051987949945 0.0054735464923 0.0058026380391 0.006184995931 0.0066175775201 
0.0070949578884 0.00760544748 0.0081387893092 0.0086825565752 0.0092224664421 0.0097428514316 0.010227277026 0.010659284979 0.01102322769 
0.011305143889 0.01149361233 0.011580510834 0.011561605704 0.011436903672 0.011210716142 0.010891413553 0.010490882788 0.010023737454 
0.0095063623572 0.0089558916666 0.0083892192278 0.0078221172876 0.0072685001214 0.0067398221066 0.008383344823 0.0076326994171 0.0070016167513 
0.0064746989702 0.0060359006782 0.0056698400242 0.0053625906699 0.0051021271579 0.0048785550607 0.0046842077232 0.0045136514452 0.0043636152705 
0.0042328528493 0.0041219459053 0.0040330622674 0.0039696807971 0.0039362910749 0.003938071534 0.0039805480908 0.0040692355784 0.0042092659801 
0.0044050098306 0.0046596995091 0.0049750668105 0.0053510121073 0.0057853273011 0.0062745692292 0.0068061387878 0.0073698639999 0.0079529743112 
0.008540387136 0.0091151623029 0.0096591235681 0.010153635691 0.010580508383 0.010922979743 0.011166713798 0.011300732357 0.011318193802 
0.011216933803 0.010999697621 0.010674021311 0.010251757193 0.0097482823113 0.0091814691075 0.0085705257775 0.0079348221082 0.0072928011916 
0.0066610411643 0.0060534846259 0.0080999468715 0.0072983809638 0.0066265683555 0.006066988917 0.005601267499 0.0052117864913 0.0048826538078 
0.004600241155 0.0043534464298 0.004133778563 0.0039353214146 0.0037546095024 0.003590438969 0.0034436330672 0.0033167763867 0.0032139254345 
0.0031402975495 0.0031019378749 0.0031053642282 0.0031571906761 0.0032637324317 0.0034305969174 0.0036622686903 0.0039617004999 0.0043299282351 
0.0047657323571 0.0052681333192 0.0058237310116 0.0064226305112 0.0070518415371 0.0076955387242 0.008335481162 0.0089516190207 0.0095228909693 
0.010028192806 0.010447474713 0.010762901564 0.010959990149 0.011028622472 0.010963829677 0.010766250402 0.010442192651 0.010003268412 
0.0094656207842 0.0088488154153 0.0081745105196 0.0074650421148 0.0067420566561 0.0060252928799 0.0053315683412 0.0076692353016 0.0068217421246 
0.0061130710959 0.0055234966518 0.0050323107384 0.0046197253042 0.004268001009 0.0039620540443 0.0036897230284 0.0034418186729 0.0032120350219 
0.0029967738044 0.0027949166121 0.0026075662449 0.0024377671014 0.0022902063345 0.0021708938317 0.0020868190211 0.0020455832467 0.0020550072571 
0.0021227148164 0.0022556954017 0.0024598520359 0.0027395448533 0.0030971469543 0.0035326425866 0.0040477132817 0.0046288073141 0.0052664861806 
0.0059477106602 0.0066560393427 0.0073719718441 0.0080735095824 0.008736951767 0.0093379166457 0.0098525526664 0.010258876697 0.010538148768 
0.010676169025 0.010664368073 0.010500562495 0.010189267144 0.0097414962815 0.0091740434486 0.0085082963008 0.0077687044021 0.0069810607625 
0.0061707703841 0.0053612582939 0.0045726235055 0.0070803567295 0.0061923153284 0.0054507854335 0.004833871901 0.004318645149 0.0038832889934 
0.0035083606936 0.0031774447149 0.0028774129699 0.002598439559 0.0023338690832 0.0020800033639 0.0018358460383 0.0016028247728 0.0013844974112 
0.0011862414508 0.0010149243067 0.00087855190534 0.00078589290718 0.00074607591212 0.00076815804092 0.00086066516324 0.0010311071107 0.0012854742002 
0.0016277210366 0.0020592342995 0.002584316716 0.0031906235742 0.0038691737148 0.0046071174313 0.0053876250561 0.0061900742641 0.0069905247301 
0.0077624836229 0.0084779589272 0.0091087760409 0.0096281021806 0.010012087524 0.010241496891 0.010303178033 0.010191200096 0.0099075058703 
0.0094619588325 0.0088717301323 0.0081600537831 0.0073544653417 0.0064847109836 0.0055805518425 0.0046696831253 0.0037759427848 0.0063237678503 
0.0054007318929 0.0046303962154 0.0039888529053 0.0034511132588 0.0029934735773 0.0025948947542 0.0022377035221 0.0019078544946 0.0015949220941 
0.0012919372114 0.00099514268124 0.00070371038556 0.0004194403462 0.00014644872886 -0.00010915482924 -0.00033960282645 -0.00053582250164 -0.00068781120583 
-0.00078504069088 -0.00081689537474 -0.00077314727807 -0.00064446654744 -0.00042296286137 -0.00010275398606 0.00031941785218 0.00084851146489 0.0014779633214 
0.0021976110131 0.0029953286778 0.0038542934724 0.0047530272435 0.0056657657873 0.0065631628871 0.0074133455941 0.0081833160499 0.0088406594602 
0.0093554730021 0.0097023817136 0.0098624625278 0.0098248666572 0.0095879246225 0.0091595470012 0.0085568015369 0.0078046484499 0.0069339346344 
0.0059788585665 0.0049741932158 0.0039525735555 0.0029421147714 0.0053912286769 0.0044389309853 0.003644009533 0.0029807258875 0.0024221765798 
0.0019428800373 0.0015202821199 0.0011355151382 0.00077367084462 0.00042377519631 7.859449266e-05 -0.00026564332986 -0.00060956359119 -0.00095097143981 
-0.0012851801762 -0.001605339789 -0.0019027693988 -0.0021673012492 -0.0023876462692 -0.0025517913737 -0.002647437192 -0.0026624818827 -0.0025855516183 
-0.0024065701156 -0.0021173416419 -0.0017120664054 -0.001187489964 -0.0005393885996 0.00021913649986 0.0010774697008 0.0020193274708 0.0030227736403 
0.0040604710297 0.0051002827795 0.0061062847676 0.0070402160551 0.0078633516841 0.0085387274923 0.009033582556 0.0093218189719 0.0093862229471 
0.0092201611254 0.0088284778394 0.0082273838255 0.0074432453752 0.0065103397595 0.0054678064905 0.0043561535286 0.0032137358868 0.0020735942944 
0.0042760482233 0.0033004984734 0.0024854470459 0.0018034842225 0.0012259268315 0.00072563305175 0.0002786375921 -0.00013503024886 -0.00053106407769 
-0.00092092573156 -0.0013120728051 -0.0017082733999 -0.0021099518308 -0.0025145356925 -0.0029167920643 -0.0033091520454 -0.003682030514 -0.0040241530169 
-0.0043229038584 -0.0045647092363 -0.0047354677432 -0.0048210376964 -0.0048077863991 -0.0046832001905 -0.0044365445428 -0.0040595501163 -0.003547100261 
-0.0028889539652 -0.0020969495798 -0.0011799781692 -0.00015326605841 0.00096130522311 0.0021352294019 0.0033338019133 0.0045170234222 0.0056410411141 
0.0066601457025 0.0075292800348 0.0082069357099 0.0086582240194 0.0088578201884 0.0087924155042 0.0084622946084 0.0078817067517 0.0070778305032 
0.006088330709 0.0049577377615 0.0037330850462 0.0024593596701 0.001175315021 0.0029733948283 0.0019808595753 0.0011502802424 0.00045275200132 
-0.00014200945725 -0.0006626392318 -0.0011343689149 -0.0015781583545 -0.0020104087843 -0.0024430290441 -0.0028836937856 -0.0033361881878 -0.0038007759616 
-0.0042745571443 -0.0047518026996 -0.0052242669222 -0.005681487748 -0.0061110902625 -0.0064991105817 -0.0068303572326 -0.0070888261593 -0.007258183442 
-0.0073223269179 -0.0072660348421 -0.0070757095031 -0.0067402395792 -0.0062520878883 -0.0055946254876 -0.0047777041695 -0.0038073244156 -0.0026968822179 
-0.0014675142647 -0.00014830286542 0.0012239045567 0.002605207923 0.0039460060867 0.0051930505455 0.0062921977426 0.007191763159 0.0078462643403 
0.0082202145088 0.0082915177354 0.0080539541596 0.0075182652529 0.0067114806355 0.0056743698082 0.0044572164102 0.0031144231758 0.0016986680777 
0.00025537107704 0.0014804609745 0.00047728769096 -0.00036423200206 -0.0010742486353 -0.0016844016199 -0.0022246071389 -0.0027212012387 -0.0031960277659 
-0.00366614454 -0.0041439021054 -0.0046372217644 -0.005149959065 -0.0056822838221 -0.0062310401076 -0.0067900726934 -0.007350522129 -0.0079011005299 
-0.0084283655548 -0.0089170123143 -0.0093502036897 -0.0097099593398 -0.0099776223914 -0.010134420574 -0.010162135568 -0.010043891221 -0.0097650678425 
-0.0093143295313 -0.0086735963288 -0.0078442085947 -0.0068293766515 -0.0056399985391 -0.0042956402514 -0.0028251606461 -0.0012668857957 0.00033181006603 
0.0019156618166 0.003423525374 0.0047912977818 0.0059556965352 0.0068587079475 0.0074523455945 0.0077031902092 0.0075960545931 0.0071360844653 
0.0063487176351 0.0052772003848 0.0039777702034 0.0025130639138 0.0009446612672 -0.00067420435783 -0.00020352498135 -0.0012111246971 -0.0020591239124 
-0.0027785898735 -0.0034022256305 -0.0039610030256 -0.0044822126521 -0.0049885034868 -0.0054975697904 -0.0060222279038 -0.00657070091 -0.0071469902123 
-0.007751259479 -0.0083801908839 -0.009027298653 -0.0096832020578 -0.010335870833 -0.010970862184 -0.011571571791 -0.012119522943 -0.012594718399 
-0.012976078845 -0.013241989736 -0.013370974778 -0.013342508637 -0.01313797394 -0.012741768009 -0.012135719063 -0.0113094059 -0.010262897676 
-0.0090034903513 -0.0075481036342 -0.0059243315156 -0.0041710424906 -0.0023383573809 -0.0004868103653 0.0013144900392 0.0029908302036 0.0044660161086 
0.0056675164481 0.0065322729 0.0070125859431 0.0070812682286 0.0067351382739 0.0059959851665 0.0049084250943 0.0035345823707 0.0019461554589 
0.0002149801949 -0.0015965345077 -0.0020773219011 -0.0030834446992 -0.0039336476525 -0.0046595379585 -0.0052945742754 -0.0058705637436 -0.0064156188507 
-0.0069531366163 -0.0075014501342 -0.0080738884226 -0.0086790555617 -0.0093212008929 -0.010000599448 -0.010713898259 -0.011454411217 -0.012212363834 
-0.012975101386 -0.013727281292 -0.014451074908 -0.015126406437 -0.015731257642 -0.016242066745 -0.016634248282 -0.016882856961 -0.01696341016 
-0.016852860732 -0.016530633908 -0.01597932866 -0.01517511679 -0.014113742636 -0.012797674553 -0.011239941214 -0.0094656124817 -0.0075128860793 
-0.0054335682389 -0.0032926944649 -0.0011670275261 0.00085779434845 0.0026915885636 0.0042453933647 0.0054383657036 0.0062051909803 0.0065030548305 
0.0063169808831 0.0056622937815 0.0045832300413 0.0031473231976 0.0014360329013 -0.00046708027487 -0.0024888389072 -0.0041376807489 -0.0051368921952 
-0.0059852916381 -0.0067146208133 -0.0073587718593 -0.0079501655326 -0.0085176121855 -0.0090852170474 -0.0096719799607 -0.01029182256 -0.010953847936 
-0.011662697375 -0.012418917046 -0.01321928579 -0.014057083952 -0.014922303393 -0.015801812395 -0.016679497676 -0.017536411064 -0.018350951433 
-0.019099114018 -0.019754839629 -0.020290495875 -0.020677521215 -0.020887260795 -0.020892023737 -0.020666414159 -0.020189133078 -0.019429519081 
-0.018374115995 -0.017019337927 -0.015373002794 -0.013456234136 -0.011305091172 -0.008971660773 -0.0065242934131 -0.0040466324968 -0.0016350960751 
0.00060545337516 0.002567943417 0.0041510349982 0.0052681800283 0.0058567356272 0.0058856581491 0.0053600867362 0.0043212957353 0.0028411555747 
0.001011326893 -0.0010713790676 -0.0033211879831 -0.0063793965977 -0.0073669575514 -0.0082099721197 -0.008939868359 -0.0095906193198 -0.010195027265 
-0.010782487547 -0.011377805045 -0.012000721253 -0.012665886669 -0.013383080186 -0.014157534606 -0.014990275653 -0.015878421125 -0.016815416738 
-0.017791206792 -0.018792352701 -0.019802122117 -0.020800577543 -0.021764697031 -0.022668561661 -0.023483645764 -0.024179246696 -0.02472309142 
-0.025082158038 -0.025223755357 -0.025116930839 -0.024734403122 -0.024045167395 -0.023020224082 -0.021649029505 -0.019932900451 -0.017887500873 
-0.015545075312 -0.012956259319 -0.010191092771 -0.0073387972225 -0.0045058525619 -0.0018119468802 0.00061647892519 0.0026550718774 0.0041923040019 